<?xml version="1.0" encoding="UTF-8"?>

<!-- generated on 2024-10-22 20:19:27 by Eclipse SUMO GUI Version 1.20.0
<configuration xmlns:xsi="http://www.w3.org/2001/XMLSchema-instance" xsi:noNamespaceSchemaLocation="http://sumo.dlr.de/xsd/sumoConfiguration.xsd">

    <input>
        <net-file value="/Users/luchenyang/Documents/SRT/11.net.xml"/>
        <route-files value="/Users/luchenyang/Documents/SRT/11.rou.xml"/>
    </input>

    <output>
        <netstate-dump value="/Users/luchenyang/Documents/SRT/tutorial_netstate.xml"/>
        <fcd-output value="/Users/luchenyang/Documents/SRT/tutorial_fcd.xml"/>
    </output>

</configuration>
-->

<fcd-export xmlns:xsi="http://www.w3.org/2001/XMLSchema-instance" xsi:noNamespaceSchemaLocation="http://sumo.dlr.de/xsd/fcd_file.xsd">
    <timestep time="0.00">
        <vehicle id="t_0" x="-44.90" y="-1.60" angle="90.00" type="DEFAULT_VEHTYPE" speed="0.00" pos="5.10" lane="-E5_0" slope="0.00"/>
    </timestep>
    <timestep time="1.00">
        <vehicle id="t_0" x="-42.94" y="-1.60" angle="90.00" type="DEFAULT_VEHTYPE" speed="1.96" pos="7.06" lane="-E5_0" slope="0.00"/>
    </timestep>
    <timestep time="2.00">
        <vehicle id="t_0" x="-38.50" y="-1.60" angle="90.00" type="DEFAULT_VEHTYPE" speed="4.44" pos="11.50" lane="-E5_0" slope="0.00"/>
    </timestep>
    <timestep time="3.00">
        <vehicle id="t_0" x="-32.67" y="-1.60" angle="90.00" type="DEFAULT_VEHTYPE" speed="5.83" pos="17.33" lane="-E5_0" slope="0.00"/>
    </timestep>
    <timestep time="4.00">
        <vehicle id="t_0" x="-24.46" y="-1.60" angle="90.00" type="DEFAULT_VEHTYPE" speed="8.21" pos="25.54" lane="-E5_0" slope="0.00"/>
    </timestep>
    <timestep time="5.00">
        <vehicle id="t_0" x="-15.40" y="-1.60" angle="90.00" type="DEFAULT_VEHTYPE" speed="9.06" pos="34.60" lane="-E5_0" slope="0.00"/>
    </timestep>
    <timestep time="6.00">
        <vehicle id="t_0" x="-10.30" y="-1.60" angle="90.00" type="DEFAULT_VEHTYPE" speed="5.11" pos="39.70" lane="-E5_0" slope="0.00"/>
    </timestep>
    <timestep time="7.00">
        <vehicle id="t_0" x="-3.12" y="-1.60" angle="90.00" type="DEFAULT_VEHTYPE" speed="7.17" pos="4.08" lane=":J12_10_0" slope="0.00"/>
    </timestep>
    <timestep time="8.00">
        <vehicle id="t_0" x="5.39" y="-1.60" angle="90.00" type="DEFAULT_VEHTYPE" speed="8.51" pos="12.59" lane=":J12_10_0" slope="0.00"/>
    </timestep>
    <timestep time="9.00">
        <vehicle id="t_0" x="15.96" y="-1.60" angle="90.00" type="DEFAULT_VEHTYPE" speed="10.57" pos="8.76" lane="E6_0" slope="0.00"/>
    </timestep>
    <timestep time="10.00">
        <vehicle id="t_0" x="28.20" y="-1.60" angle="90.00" type="DEFAULT_VEHTYPE" speed="12.24" pos="21.00" lane="E6_0" slope="0.00"/>
    </timestep>
    <timestep time="11.00">
        <vehicle id="t_0" x="42.69" y="-1.60" angle="90.00" type="DEFAULT_VEHTYPE" speed="14.49" pos="35.49" lane="E6_0" slope="0.00"/>
    </timestep>
    <timestep time="12.00"/>
</fcd-export>
