<?xml version="1.0" encoding="UTF-8"?>

<!-- generated on 2024-12-03 22:42:59 by Eclipse SUMO GUI Version 1.20.0
<configuration xmlns:xsi="http://www.w3.org/2001/XMLSchema-instance" xsi:noNamespaceSchemaLocation="http://sumo.dlr.de/xsd/sumoConfiguration.xsd">

    <input>
        <net-file value="./data/2x4_intersection.net.xml"/>
        <route-files value="./data/2x4_intersection.rou.xml"/>
    </input>

    <output>
        <netstate-dump value="./data/tutorial_netstate.xml"/>
        <fcd-output value="./data/tutorial_fcd.xml"/>
        <tripinfo-output value="./out/tripinfo.xml"/>
        <collision-output value="./out/collisions.xml"/>
        <statistic-output value="./out/statistics.xml"/>
    </output>

    <traci_server>
        <remote-port value="58551"/>
    </traci_server>

</configuration>
-->

<fcd-export xmlns:xsi="http://www.w3.org/2001/XMLSchema-instance" xsi:noNamespaceSchemaLocation="http://sumo.dlr.de/xsd/fcd_file.xsd">
    <timestep time="0.00">
        <vehicle id="f1.0" x="-298.21" y="-1.60" angle="90.00" type="myType" speed="0.00" pos="6.10" lane="road_hrz_1_0" slope="0.00"/>
    </timestep>
    <timestep time="1.00">
        <vehicle id="f1.0" x="-294.15" y="-1.60" angle="90.00" type="myType" speed="13.88" pos="19.98" lane="road_hrz_1_0" slope="0.00"/>
    </timestep>
    <timestep time="2.00">
        <vehicle id="f1.0" x="-290.09" y="-1.60" angle="90.00" type="myType" speed="13.88" pos="33.86" lane="road_hrz_1_0" slope="0.00"/>
    </timestep>
    <timestep time="3.00">
        <vehicle id="f1.0" x="-286.02" y="-1.60" angle="90.00" type="myType" speed="13.88" pos="47.74" lane="road_hrz_1_0" slope="0.00"/>
    </timestep>
    <timestep time="4.00">
        <vehicle id="f1.0" x="-281.96" y="-1.60" angle="90.00" type="myType" speed="13.88" pos="61.62" lane="road_hrz_1_0" slope="0.00"/>
    </timestep>
    <timestep time="5.00">
        <vehicle id="f1.0" x="-277.89" y="-1.60" angle="90.00" type="myType" speed="13.88" pos="75.50" lane="road_hrz_1_0" slope="0.00"/>
    </timestep>
    <timestep time="6.00">
        <vehicle id="f1.0" x="-273.83" y="-1.60" angle="90.00" type="myType" speed="13.88" pos="89.38" lane="road_hrz_1_0" slope="0.00"/>
    </timestep>
    <timestep time="7.00">
        <vehicle id="f1.0" x="-269.77" y="-1.60" angle="90.00" type="myType" speed="13.88" pos="103.26" lane="road_hrz_1_0" slope="0.00"/>
        <vehicle id="f3.0" x="298.21" y="1.60" angle="270.00" type="myType" speed="0.00" pos="6.10" lane="road_hrz_3_0" slope="0.00"/>
    </timestep>
    <timestep time="8.00">
        <vehicle id="f1.0" x="-265.70" y="-1.60" angle="90.00" type="myType" speed="13.88" pos="117.14" lane="road_hrz_1_0" slope="0.00"/>
        <vehicle id="f3.0" x="294.15" y="1.60" angle="270.00" type="myType" speed="13.88" pos="19.98" lane="road_hrz_3_0" slope="0.00"/>
    </timestep>
    <timestep time="9.00">
        <vehicle id="f1.0" x="-261.64" y="-1.60" angle="90.00" type="myType" speed="13.88" pos="131.02" lane="road_hrz_1_0" slope="0.00"/>
        <vehicle id="f3.0" x="290.09" y="1.60" angle="270.00" type="myType" speed="13.88" pos="33.86" lane="road_hrz_3_0" slope="0.00"/>
    </timestep>
    <timestep time="10.00">
        <vehicle id="f1.0" x="-257.57" y="-1.60" angle="90.00" type="myType" speed="13.88" pos="144.90" lane="road_hrz_1_0" slope="0.00"/>
        <vehicle id="f3.0" x="286.02" y="1.60" angle="270.00" type="myType" speed="13.88" pos="47.74" lane="road_hrz_3_0" slope="0.00"/>
    </timestep>
    <timestep time="11.00">
        <vehicle id="f1.0" x="-253.51" y="-1.60" angle="90.00" type="myType" speed="13.88" pos="158.78" lane="road_hrz_1_0" slope="0.00"/>
        <vehicle id="f3.0" x="281.96" y="1.60" angle="270.00" type="myType" speed="13.88" pos="61.62" lane="road_hrz_3_0" slope="0.00"/>
    </timestep>
    <timestep time="12.00">
        <vehicle id="f1.0" x="-249.45" y="-1.60" angle="90.00" type="myType" speed="13.88" pos="172.66" lane="road_hrz_1_0" slope="0.00"/>
        <vehicle id="f3.0" x="277.89" y="1.60" angle="270.00" type="myType" speed="13.88" pos="75.50" lane="road_hrz_3_0" slope="0.00"/>
    </timestep>
    <timestep time="13.00">
        <vehicle id="f1.0" x="-245.38" y="-1.60" angle="90.00" type="myType" speed="13.88" pos="186.54" lane="road_hrz_1_0" slope="0.00"/>
        <vehicle id="f3.0" x="273.83" y="1.60" angle="270.00" type="myType" speed="13.88" pos="89.38" lane="road_hrz_3_0" slope="0.00"/>
    </timestep>
    <timestep time="14.00">
        <vehicle id="f1.0" x="-241.32" y="-1.60" angle="90.00" type="myType" speed="13.88" pos="200.42" lane="road_hrz_1_0" slope="0.00"/>
        <vehicle id="f3.0" x="269.77" y="1.60" angle="270.00" type="myType" speed="13.88" pos="103.26" lane="road_hrz_3_0" slope="0.00"/>
    </timestep>
    <timestep time="15.00">
        <vehicle id="f1.0" x="-237.25" y="-1.60" angle="90.00" type="myType" speed="13.88" pos="214.30" lane="road_hrz_1_0" slope="0.00"/>
        <vehicle id="f3.0" x="265.70" y="1.60" angle="270.00" type="myType" speed="13.88" pos="117.14" lane="road_hrz_3_0" slope="0.00"/>
    </timestep>
    <timestep time="16.00">
        <vehicle id="f1.0" x="-233.19" y="-1.60" angle="90.00" type="myType" speed="13.88" pos="228.18" lane="road_hrz_1_0" slope="0.00"/>
        <vehicle id="f3.0" x="261.64" y="1.60" angle="270.00" type="myType" speed="13.88" pos="131.02" lane="road_hrz_3_0" slope="0.00"/>
    </timestep>
    <timestep time="17.00">
        <vehicle id="f1.0" x="-229.12" y="-1.60" angle="90.00" type="myType" speed="13.88" pos="242.06" lane="road_hrz_1_0" slope="0.00"/>
        <vehicle id="f3.0" x="257.57" y="1.60" angle="270.00" type="myType" speed="13.88" pos="144.90" lane="road_hrz_3_0" slope="0.00"/>
    </timestep>
    <timestep time="18.00">
        <vehicle id="f1.0" x="-225.06" y="-1.60" angle="90.00" type="myType" speed="13.88" pos="255.94" lane="road_hrz_1_0" slope="0.00"/>
        <vehicle id="f1.1" x="-298.21" y="-1.60" angle="90.00" type="myType" speed="0.00" pos="6.10" lane="road_hrz_1_0" slope="0.00"/>
        <vehicle id="f3.0" x="253.51" y="1.60" angle="270.00" type="myType" speed="13.88" pos="158.78" lane="road_hrz_3_0" slope="0.00"/>
    </timestep>
    <timestep time="19.00">
        <vehicle id="f1.0" x="-221.00" y="-1.60" angle="90.00" type="myType" speed="13.88" pos="269.82" lane="road_hrz_1_0" slope="0.00"/>
        <vehicle id="f1.1" x="-294.15" y="-1.60" angle="90.00" type="myType" speed="13.88" pos="19.98" lane="road_hrz_1_0" slope="0.00"/>
        <vehicle id="f3.0" x="249.45" y="1.60" angle="270.00" type="myType" speed="13.88" pos="172.66" lane="road_hrz_3_0" slope="0.00"/>
    </timestep>
    <timestep time="20.00">
        <vehicle id="f1.0" x="-216.93" y="-1.60" angle="90.00" type="myType" speed="13.88" pos="283.70" lane="road_hrz_1_0" slope="0.00"/>
        <vehicle id="f1.1" x="-290.09" y="-1.60" angle="90.00" type="myType" speed="13.88" pos="33.86" lane="road_hrz_1_0" slope="0.00"/>
        <vehicle id="f3.0" x="245.38" y="1.60" angle="270.00" type="myType" speed="13.88" pos="186.54" lane="road_hrz_3_0" slope="0.00"/>
    </timestep>
    <timestep time="21.00">
        <vehicle id="f1.0" x="-212.87" y="-1.60" angle="90.00" type="myType" speed="13.88" pos="297.58" lane="road_hrz_1_0" slope="0.00"/>
        <vehicle id="f1.1" x="-286.02" y="-1.60" angle="90.00" type="myType" speed="13.88" pos="47.74" lane="road_hrz_1_0" slope="0.00"/>
        <vehicle id="f3.0" x="241.32" y="1.60" angle="270.00" type="myType" speed="13.88" pos="200.42" lane="road_hrz_3_0" slope="0.00"/>
    </timestep>
    <timestep time="22.00">
        <vehicle id="f1.0" x="-208.80" y="-1.60" angle="90.00" type="myType" speed="13.88" pos="311.46" lane="road_hrz_1_0" slope="0.00"/>
        <vehicle id="f1.1" x="-281.96" y="-1.60" angle="90.00" type="myType" speed="13.88" pos="61.62" lane="road_hrz_1_0" slope="0.00"/>
        <vehicle id="f3.0" x="237.25" y="1.60" angle="270.00" type="myType" speed="13.88" pos="214.30" lane="road_hrz_3_0" slope="0.00"/>
    </timestep>
    <timestep time="23.00">
        <vehicle id="f1.0" x="-204.74" y="-1.60" angle="90.00" type="myType" speed="13.88" pos="325.34" lane="road_hrz_1_0" slope="0.00"/>
        <vehicle id="f1.1" x="-277.89" y="-1.60" angle="90.00" type="myType" speed="13.88" pos="75.50" lane="road_hrz_1_0" slope="0.00"/>
        <vehicle id="f3.0" x="233.19" y="1.60" angle="270.00" type="myType" speed="13.88" pos="228.18" lane="road_hrz_3_0" slope="0.00"/>
    </timestep>
    <timestep time="24.00">
        <vehicle id="f1.0" x="-200.68" y="-1.60" angle="90.00" type="myType" speed="13.88" pos="339.22" lane="road_hrz_1_0" slope="0.00"/>
        <vehicle id="f1.1" x="-273.83" y="-1.60" angle="90.00" type="myType" speed="13.88" pos="89.38" lane="road_hrz_1_0" slope="0.00"/>
        <vehicle id="f3.0" x="229.12" y="1.60" angle="270.00" type="myType" speed="13.88" pos="242.06" lane="road_hrz_3_0" slope="0.00"/>
    </timestep>
    <timestep time="25.00">
        <vehicle id="f1.0" x="-196.61" y="-1.60" angle="90.00" type="myType" speed="13.88" pos="353.10" lane="road_hrz_1_0" slope="0.00"/>
        <vehicle id="f1.1" x="-269.77" y="-1.60" angle="90.00" type="myType" speed="13.88" pos="103.26" lane="road_hrz_1_0" slope="0.00"/>
        <vehicle id="f3.0" x="225.06" y="1.60" angle="270.00" type="myType" speed="13.88" pos="255.94" lane="road_hrz_3_0" slope="0.00"/>
        <vehicle id="f3.1" x="298.21" y="1.60" angle="270.00" type="myType" speed="0.00" pos="6.10" lane="road_hrz_3_0" slope="0.00"/>
    </timestep>
    <timestep time="26.00">
        <vehicle id="f1.0" x="-192.55" y="-1.60" angle="90.00" type="myType" speed="13.88" pos="366.98" lane="road_hrz_1_0" slope="0.00"/>
        <vehicle id="f1.1" x="-265.70" y="-1.60" angle="90.00" type="myType" speed="13.88" pos="117.14" lane="road_hrz_1_0" slope="0.00"/>
        <vehicle id="f3.0" x="221.00" y="1.60" angle="270.00" type="myType" speed="13.88" pos="269.82" lane="road_hrz_3_0" slope="0.00"/>
        <vehicle id="f3.1" x="294.15" y="1.60" angle="270.00" type="myType" speed="13.88" pos="19.98" lane="road_hrz_3_0" slope="0.00"/>
    </timestep>
    <timestep time="27.00">
        <vehicle id="f1.0" x="-188.48" y="-1.60" angle="90.00" type="myType" speed="13.88" pos="380.86" lane="road_hrz_1_0" slope="0.00"/>
        <vehicle id="f1.1" x="-261.64" y="-1.60" angle="90.00" type="myType" speed="13.88" pos="131.02" lane="road_hrz_1_0" slope="0.00"/>
        <vehicle id="f3.0" x="216.93" y="1.60" angle="270.00" type="myType" speed="13.88" pos="283.70" lane="road_hrz_3_0" slope="0.00"/>
        <vehicle id="f3.1" x="290.09" y="1.60" angle="270.00" type="myType" speed="13.88" pos="33.86" lane="road_hrz_3_0" slope="0.00"/>
    </timestep>
    <timestep time="28.00">
        <vehicle id="f1.0" x="-184.42" y="-1.60" angle="90.00" type="myType" speed="13.88" pos="394.74" lane="road_hrz_1_0" slope="0.00"/>
        <vehicle id="f1.1" x="-257.57" y="-1.60" angle="90.00" type="myType" speed="13.88" pos="144.90" lane="road_hrz_1_0" slope="0.00"/>
        <vehicle id="f3.0" x="212.87" y="1.60" angle="270.00" type="myType" speed="13.88" pos="297.58" lane="road_hrz_3_0" slope="0.00"/>
        <vehicle id="f3.1" x="286.02" y="1.60" angle="270.00" type="myType" speed="13.88" pos="47.74" lane="road_hrz_3_0" slope="0.00"/>
    </timestep>
    <timestep time="29.00">
        <vehicle id="f1.0" x="-180.36" y="-1.60" angle="90.00" type="myType" speed="13.88" pos="408.62" lane="road_hrz_1_0" slope="0.00"/>
        <vehicle id="f1.1" x="-253.51" y="-1.60" angle="90.00" type="myType" speed="13.88" pos="158.78" lane="road_hrz_1_0" slope="0.00"/>
        <vehicle id="f3.0" x="208.80" y="1.60" angle="270.00" type="myType" speed="13.88" pos="311.46" lane="road_hrz_3_0" slope="0.00"/>
        <vehicle id="f3.1" x="281.96" y="1.60" angle="270.00" type="myType" speed="13.88" pos="61.62" lane="road_hrz_3_0" slope="0.00"/>
    </timestep>
    <timestep time="30.00">
        <vehicle id="f1.0" x="-176.29" y="-1.60" angle="90.00" type="myType" speed="13.88" pos="422.50" lane="road_hrz_1_0" slope="0.00"/>
        <vehicle id="f1.1" x="-249.45" y="-1.60" angle="90.00" type="myType" speed="13.88" pos="172.66" lane="road_hrz_1_0" slope="0.00"/>
        <vehicle id="f3.0" x="204.74" y="1.60" angle="270.00" type="myType" speed="13.88" pos="325.34" lane="road_hrz_3_0" slope="0.00"/>
        <vehicle id="f3.1" x="277.89" y="1.60" angle="270.00" type="myType" speed="13.88" pos="75.50" lane="road_hrz_3_0" slope="0.00"/>
    </timestep>
    <timestep time="31.00">
        <vehicle id="f1.0" x="-172.23" y="-1.60" angle="90.00" type="myType" speed="13.88" pos="436.38" lane="road_hrz_1_0" slope="0.00"/>
        <vehicle id="f1.1" x="-245.38" y="-1.60" angle="90.00" type="myType" speed="13.88" pos="186.54" lane="road_hrz_1_0" slope="0.00"/>
        <vehicle id="f3.0" x="200.68" y="1.60" angle="270.00" type="myType" speed="13.88" pos="339.22" lane="road_hrz_3_0" slope="0.00"/>
        <vehicle id="f3.1" x="273.83" y="1.60" angle="270.00" type="myType" speed="13.88" pos="89.38" lane="road_hrz_3_0" slope="0.00"/>
    </timestep>
    <timestep time="32.00">
        <vehicle id="f1.0" x="-168.16" y="-1.60" angle="90.00" type="myType" speed="13.88" pos="450.26" lane="road_hrz_1_0" slope="0.00"/>
        <vehicle id="f1.1" x="-241.32" y="-1.60" angle="90.00" type="myType" speed="13.88" pos="200.42" lane="road_hrz_1_0" slope="0.00"/>
        <vehicle id="f3.0" x="196.61" y="1.60" angle="270.00" type="myType" speed="13.88" pos="353.10" lane="road_hrz_3_0" slope="0.00"/>
        <vehicle id="f3.1" x="269.77" y="1.60" angle="270.00" type="myType" speed="13.88" pos="103.26" lane="road_hrz_3_0" slope="0.00"/>
    </timestep>
    <timestep time="33.00">
        <vehicle id="f1.0" x="-164.10" y="-1.60" angle="90.00" type="myType" speed="13.88" pos="464.14" lane="road_hrz_1_0" slope="0.00"/>
        <vehicle id="f1.1" x="-237.25" y="-1.60" angle="90.00" type="myType" speed="13.88" pos="214.30" lane="road_hrz_1_0" slope="0.00"/>
        <vehicle id="f3.0" x="192.55" y="1.60" angle="270.00" type="myType" speed="13.88" pos="366.98" lane="road_hrz_3_0" slope="0.00"/>
        <vehicle id="f3.1" x="265.70" y="1.60" angle="270.00" type="myType" speed="13.88" pos="117.14" lane="road_hrz_3_0" slope="0.00"/>
    </timestep>
    <timestep time="34.00">
        <vehicle id="f1.0" x="-160.04" y="-1.60" angle="90.00" type="myType" speed="13.88" pos="478.02" lane="road_hrz_1_0" slope="0.00"/>
        <vehicle id="f1.1" x="-233.19" y="-1.60" angle="90.00" type="myType" speed="13.88" pos="228.18" lane="road_hrz_1_0" slope="0.00"/>
        <vehicle id="f3.0" x="188.48" y="1.60" angle="270.00" type="myType" speed="13.88" pos="380.86" lane="road_hrz_3_0" slope="0.00"/>
        <vehicle id="f3.1" x="261.64" y="1.60" angle="270.00" type="myType" speed="13.88" pos="131.02" lane="road_hrz_3_0" slope="0.00"/>
    </timestep>
    <timestep time="35.00">
        <vehicle id="f1.0" x="-155.97" y="-1.60" angle="90.00" type="myType" speed="13.88" pos="491.90" lane="road_hrz_1_0" slope="0.00"/>
        <vehicle id="f1.1" x="-229.12" y="-1.60" angle="90.00" type="myType" speed="13.88" pos="242.06" lane="road_hrz_1_0" slope="0.00"/>
        <vehicle id="f3.0" x="184.42" y="1.60" angle="270.00" type="myType" speed="13.88" pos="394.74" lane="road_hrz_3_0" slope="0.00"/>
        <vehicle id="f3.1" x="257.57" y="1.60" angle="270.00" type="myType" speed="13.88" pos="144.90" lane="road_hrz_3_0" slope="0.00"/>
    </timestep>
    <timestep time="36.00">
        <vehicle id="f1.0" x="-151.91" y="-1.60" angle="90.00" type="myType" speed="13.88" pos="505.78" lane="road_hrz_1_0" slope="0.00"/>
        <vehicle id="f1.1" x="-225.06" y="-1.60" angle="90.00" type="myType" speed="13.88" pos="255.94" lane="road_hrz_1_0" slope="0.00"/>
        <vehicle id="f1.2" x="-298.21" y="-1.60" angle="90.00" type="myType" speed="0.00" pos="6.10" lane="road_hrz_1_0" slope="0.00"/>
        <vehicle id="f3.0" x="180.36" y="1.60" angle="270.00" type="myType" speed="13.88" pos="408.62" lane="road_hrz_3_0" slope="0.00"/>
        <vehicle id="f3.1" x="253.51" y="1.60" angle="270.00" type="myType" speed="13.88" pos="158.78" lane="road_hrz_3_0" slope="0.00"/>
    </timestep>
    <timestep time="37.00">
        <vehicle id="f1.0" x="-147.84" y="-1.60" angle="90.00" type="myType" speed="13.88" pos="519.66" lane="road_hrz_1_0" slope="0.00"/>
        <vehicle id="f1.1" x="-221.00" y="-1.60" angle="90.00" type="myType" speed="13.88" pos="269.82" lane="road_hrz_1_0" slope="0.00"/>
        <vehicle id="f1.2" x="-294.15" y="-1.60" angle="90.00" type="myType" speed="13.88" pos="19.98" lane="road_hrz_1_0" slope="0.00"/>
        <vehicle id="f3.0" x="176.29" y="1.60" angle="270.00" type="myType" speed="13.88" pos="422.50" lane="road_hrz_3_0" slope="0.00"/>
        <vehicle id="f3.1" x="249.45" y="1.60" angle="270.00" type="myType" speed="13.88" pos="172.66" lane="road_hrz_3_0" slope="0.00"/>
    </timestep>
    <timestep time="38.00">
        <vehicle id="f1.0" x="-143.78" y="-1.60" angle="90.00" type="myType" speed="13.88" pos="533.54" lane="road_hrz_1_0" slope="0.00"/>
        <vehicle id="f1.1" x="-216.93" y="-1.60" angle="90.00" type="myType" speed="13.88" pos="283.70" lane="road_hrz_1_0" slope="0.00"/>
        <vehicle id="f1.2" x="-290.09" y="-1.60" angle="90.00" type="myType" speed="13.88" pos="33.86" lane="road_hrz_1_0" slope="0.00"/>
        <vehicle id="f3.0" x="172.23" y="1.60" angle="270.00" type="myType" speed="13.88" pos="436.38" lane="road_hrz_3_0" slope="0.00"/>
        <vehicle id="f3.1" x="245.38" y="1.60" angle="270.00" type="myType" speed="13.88" pos="186.54" lane="road_hrz_3_0" slope="0.00"/>
    </timestep>
    <timestep time="39.00">
        <vehicle id="f1.0" x="-139.72" y="-1.60" angle="90.00" type="myType" speed="13.88" pos="547.42" lane="road_hrz_1_0" slope="0.00"/>
        <vehicle id="f1.1" x="-212.87" y="-1.60" angle="90.00" type="myType" speed="13.88" pos="297.58" lane="road_hrz_1_0" slope="0.00"/>
        <vehicle id="f1.2" x="-286.02" y="-1.60" angle="90.00" type="myType" speed="13.88" pos="47.74" lane="road_hrz_1_0" slope="0.00"/>
        <vehicle id="f3.0" x="168.16" y="1.60" angle="270.00" type="myType" speed="13.88" pos="450.26" lane="road_hrz_3_0" slope="0.00"/>
        <vehicle id="f3.1" x="241.32" y="1.60" angle="270.00" type="myType" speed="13.88" pos="200.42" lane="road_hrz_3_0" slope="0.00"/>
    </timestep>
    <timestep time="40.00">
        <vehicle id="f1.0" x="-135.65" y="-1.60" angle="90.00" type="myType" speed="13.88" pos="561.30" lane="road_hrz_1_0" slope="0.00"/>
        <vehicle id="f1.1" x="-208.80" y="-1.60" angle="90.00" type="myType" speed="13.88" pos="311.46" lane="road_hrz_1_0" slope="0.00"/>
        <vehicle id="f1.2" x="-281.96" y="-1.60" angle="90.00" type="myType" speed="13.88" pos="61.62" lane="road_hrz_1_0" slope="0.00"/>
        <vehicle id="f3.0" x="164.10" y="1.60" angle="270.00" type="myType" speed="13.88" pos="464.14" lane="road_hrz_3_0" slope="0.00"/>
        <vehicle id="f3.1" x="237.25" y="1.60" angle="270.00" type="myType" speed="13.88" pos="214.30" lane="road_hrz_3_0" slope="0.00"/>
    </timestep>
    <timestep time="41.00">
        <vehicle id="f1.0" x="-131.59" y="-1.60" angle="90.00" type="myType" speed="13.88" pos="575.18" lane="road_hrz_1_0" slope="0.00"/>
        <vehicle id="f1.1" x="-204.74" y="-1.60" angle="90.00" type="myType" speed="13.88" pos="325.34" lane="road_hrz_1_0" slope="0.00"/>
        <vehicle id="f1.2" x="-277.89" y="-1.60" angle="90.00" type="myType" speed="13.88" pos="75.50" lane="road_hrz_1_0" slope="0.00"/>
        <vehicle id="f3.0" x="160.04" y="1.60" angle="270.00" type="myType" speed="13.88" pos="478.02" lane="road_hrz_3_0" slope="0.00"/>
        <vehicle id="f3.1" x="233.19" y="1.60" angle="270.00" type="myType" speed="13.88" pos="228.18" lane="road_hrz_3_0" slope="0.00"/>
    </timestep>
    <timestep time="42.00">
        <vehicle id="f1.0" x="-127.52" y="-1.60" angle="90.00" type="myType" speed="13.88" pos="589.06" lane="road_hrz_1_0" slope="0.00"/>
        <vehicle id="f1.1" x="-200.68" y="-1.60" angle="90.00" type="myType" speed="13.88" pos="339.22" lane="road_hrz_1_0" slope="0.00"/>
        <vehicle id="f1.2" x="-273.83" y="-1.60" angle="90.00" type="myType" speed="13.88" pos="89.38" lane="road_hrz_1_0" slope="0.00"/>
        <vehicle id="f3.0" x="155.97" y="1.60" angle="270.00" type="myType" speed="13.88" pos="491.90" lane="road_hrz_3_0" slope="0.00"/>
        <vehicle id="f3.1" x="229.12" y="1.60" angle="270.00" type="myType" speed="13.88" pos="242.06" lane="road_hrz_3_0" slope="0.00"/>
    </timestep>
    <timestep time="43.00">
        <vehicle id="f1.0" x="-123.46" y="-1.60" angle="90.00" type="myType" speed="13.88" pos="602.94" lane="road_hrz_1_0" slope="0.00"/>
        <vehicle id="f1.1" x="-196.61" y="-1.60" angle="90.00" type="myType" speed="13.88" pos="353.10" lane="road_hrz_1_0" slope="0.00"/>
        <vehicle id="f1.2" x="-269.77" y="-1.60" angle="90.00" type="myType" speed="13.88" pos="103.26" lane="road_hrz_1_0" slope="0.00"/>
        <vehicle id="f3.0" x="151.91" y="1.60" angle="270.00" type="myType" speed="13.88" pos="505.78" lane="road_hrz_3_0" slope="0.00"/>
        <vehicle id="f3.1" x="225.06" y="1.60" angle="270.00" type="myType" speed="13.88" pos="255.94" lane="road_hrz_3_0" slope="0.00"/>
        <vehicle id="f3.2" x="298.21" y="1.60" angle="270.00" type="myType" speed="0.00" pos="6.10" lane="road_hrz_3_0" slope="0.00"/>
    </timestep>
    <timestep time="44.00">
        <vehicle id="f1.0" x="-119.40" y="-1.60" angle="90.00" type="myType" speed="13.88" pos="616.82" lane="road_hrz_1_0" slope="0.00"/>
        <vehicle id="f1.1" x="-192.55" y="-1.60" angle="90.00" type="myType" speed="13.88" pos="366.98" lane="road_hrz_1_0" slope="0.00"/>
        <vehicle id="f1.2" x="-265.70" y="-1.60" angle="90.00" type="myType" speed="13.88" pos="117.14" lane="road_hrz_1_0" slope="0.00"/>
        <vehicle id="f3.0" x="147.84" y="1.60" angle="270.00" type="myType" speed="13.88" pos="519.66" lane="road_hrz_3_0" slope="0.00"/>
        <vehicle id="f3.1" x="221.00" y="1.60" angle="270.00" type="myType" speed="13.88" pos="269.82" lane="road_hrz_3_0" slope="0.00"/>
        <vehicle id="f3.2" x="294.15" y="1.60" angle="270.00" type="myType" speed="13.88" pos="19.98" lane="road_hrz_3_0" slope="0.00"/>
    </timestep>
    <timestep time="45.00">
        <vehicle id="f1.0" x="-115.33" y="-1.60" angle="90.00" type="myType" speed="13.88" pos="630.70" lane="road_hrz_1_0" slope="0.00"/>
        <vehicle id="f1.1" x="-188.48" y="-1.60" angle="90.00" type="myType" speed="13.88" pos="380.86" lane="road_hrz_1_0" slope="0.00"/>
        <vehicle id="f1.2" x="-261.64" y="-1.60" angle="90.00" type="myType" speed="13.88" pos="131.02" lane="road_hrz_1_0" slope="0.00"/>
        <vehicle id="f3.0" x="143.78" y="1.60" angle="270.00" type="myType" speed="13.88" pos="533.54" lane="road_hrz_3_0" slope="0.00"/>
        <vehicle id="f3.1" x="216.93" y="1.60" angle="270.00" type="myType" speed="13.88" pos="283.70" lane="road_hrz_3_0" slope="0.00"/>
        <vehicle id="f3.2" x="290.09" y="1.60" angle="270.00" type="myType" speed="13.88" pos="33.86" lane="road_hrz_3_0" slope="0.00"/>
    </timestep>
    <timestep time="46.00">
        <vehicle id="f1.0" x="-111.27" y="-1.60" angle="90.00" type="myType" speed="13.88" pos="644.58" lane="road_hrz_1_0" slope="0.00"/>
        <vehicle id="f1.1" x="-184.42" y="-1.60" angle="90.00" type="myType" speed="13.88" pos="394.74" lane="road_hrz_1_0" slope="0.00"/>
        <vehicle id="f1.2" x="-257.57" y="-1.60" angle="90.00" type="myType" speed="13.88" pos="144.90" lane="road_hrz_1_0" slope="0.00"/>
        <vehicle id="f3.0" x="139.72" y="1.60" angle="270.00" type="myType" speed="13.88" pos="547.42" lane="road_hrz_3_0" slope="0.00"/>
        <vehicle id="f3.1" x="212.87" y="1.60" angle="270.00" type="myType" speed="13.88" pos="297.58" lane="road_hrz_3_0" slope="0.00"/>
        <vehicle id="f3.2" x="286.02" y="1.60" angle="270.00" type="myType" speed="13.88" pos="47.74" lane="road_hrz_3_0" slope="0.00"/>
    </timestep>
    <timestep time="47.00">
        <vehicle id="f1.0" x="-107.20" y="-1.60" angle="90.00" type="myType" speed="13.88" pos="658.46" lane="road_hrz_1_0" slope="0.00"/>
        <vehicle id="f1.1" x="-180.36" y="-1.60" angle="90.00" type="myType" speed="13.88" pos="408.62" lane="road_hrz_1_0" slope="0.00"/>
        <vehicle id="f1.2" x="-253.51" y="-1.60" angle="90.00" type="myType" speed="13.88" pos="158.78" lane="road_hrz_1_0" slope="0.00"/>
        <vehicle id="f3.0" x="135.65" y="1.60" angle="270.00" type="myType" speed="13.88" pos="561.30" lane="road_hrz_3_0" slope="0.00"/>
        <vehicle id="f3.1" x="208.80" y="1.60" angle="270.00" type="myType" speed="13.88" pos="311.46" lane="road_hrz_3_0" slope="0.00"/>
        <vehicle id="f3.2" x="281.96" y="1.60" angle="270.00" type="myType" speed="13.88" pos="61.62" lane="road_hrz_3_0" slope="0.00"/>
    </timestep>
    <timestep time="48.00">
        <vehicle id="f1.0" x="-103.14" y="-1.60" angle="90.00" type="myType" speed="13.88" pos="672.34" lane="road_hrz_1_0" slope="0.00"/>
        <vehicle id="f1.1" x="-176.29" y="-1.60" angle="90.00" type="myType" speed="13.88" pos="422.50" lane="road_hrz_1_0" slope="0.00"/>
        <vehicle id="f1.2" x="-249.45" y="-1.60" angle="90.00" type="myType" speed="13.88" pos="172.66" lane="road_hrz_1_0" slope="0.00"/>
        <vehicle id="f3.0" x="131.59" y="1.60" angle="270.00" type="myType" speed="13.88" pos="575.18" lane="road_hrz_3_0" slope="0.00"/>
        <vehicle id="f3.1" x="204.74" y="1.60" angle="270.00" type="myType" speed="13.88" pos="325.34" lane="road_hrz_3_0" slope="0.00"/>
        <vehicle id="f3.2" x="277.89" y="1.60" angle="270.00" type="myType" speed="13.88" pos="75.50" lane="road_hrz_3_0" slope="0.00"/>
    </timestep>
    <timestep time="49.00">
        <vehicle id="f1.0" x="-99.07" y="-1.60" angle="90.00" type="myType" speed="13.88" pos="686.22" lane="road_hrz_1_0" slope="0.00"/>
        <vehicle id="f1.1" x="-172.23" y="-1.60" angle="90.00" type="myType" speed="13.88" pos="436.38" lane="road_hrz_1_0" slope="0.00"/>
        <vehicle id="f1.2" x="-245.38" y="-1.60" angle="90.00" type="myType" speed="13.88" pos="186.54" lane="road_hrz_1_0" slope="0.00"/>
        <vehicle id="f3.0" x="127.52" y="1.60" angle="270.00" type="myType" speed="13.88" pos="589.06" lane="road_hrz_3_0" slope="0.00"/>
        <vehicle id="f3.1" x="200.68" y="1.60" angle="270.00" type="myType" speed="13.88" pos="339.22" lane="road_hrz_3_0" slope="0.00"/>
        <vehicle id="f3.2" x="273.83" y="1.60" angle="270.00" type="myType" speed="13.88" pos="89.38" lane="road_hrz_3_0" slope="0.00"/>
    </timestep>
    <timestep time="50.00">
        <vehicle id="f1.0" x="-95.01" y="-1.60" angle="90.00" type="myType" speed="13.88" pos="700.10" lane="road_hrz_1_0" slope="0.00"/>
        <vehicle id="f1.1" x="-168.16" y="-1.60" angle="90.00" type="myType" speed="13.88" pos="450.26" lane="road_hrz_1_0" slope="0.00"/>
        <vehicle id="f1.2" x="-241.32" y="-1.60" angle="90.00" type="myType" speed="13.88" pos="200.42" lane="road_hrz_1_0" slope="0.00"/>
        <vehicle id="f3.0" x="123.46" y="1.60" angle="270.00" type="myType" speed="13.88" pos="602.94" lane="road_hrz_3_0" slope="0.00"/>
        <vehicle id="f3.1" x="196.61" y="1.60" angle="270.00" type="myType" speed="13.88" pos="353.10" lane="road_hrz_3_0" slope="0.00"/>
        <vehicle id="f3.2" x="269.77" y="1.60" angle="270.00" type="myType" speed="13.88" pos="103.26" lane="road_hrz_3_0" slope="0.00"/>
    </timestep>
    <timestep time="51.00">
        <vehicle id="f1.0" x="-90.95" y="-1.60" angle="90.00" type="myType" speed="13.88" pos="713.98" lane="road_hrz_1_0" slope="0.00"/>
        <vehicle id="f1.1" x="-164.10" y="-1.60" angle="90.00" type="myType" speed="13.88" pos="464.14" lane="road_hrz_1_0" slope="0.00"/>
        <vehicle id="f1.2" x="-237.25" y="-1.60" angle="90.00" type="myType" speed="13.88" pos="214.30" lane="road_hrz_1_0" slope="0.00"/>
        <vehicle id="f3.0" x="119.40" y="1.60" angle="270.00" type="myType" speed="13.88" pos="616.82" lane="road_hrz_3_0" slope="0.00"/>
        <vehicle id="f3.1" x="192.55" y="1.60" angle="270.00" type="myType" speed="13.88" pos="366.98" lane="road_hrz_3_0" slope="0.00"/>
        <vehicle id="f3.2" x="265.70" y="1.60" angle="270.00" type="myType" speed="13.88" pos="117.14" lane="road_hrz_3_0" slope="0.00"/>
    </timestep>
    <timestep time="52.00">
        <vehicle id="f1.0" x="-86.88" y="-1.60" angle="90.00" type="myType" speed="13.88" pos="727.86" lane="road_hrz_1_0" slope="0.00"/>
        <vehicle id="f1.1" x="-160.04" y="-1.60" angle="90.00" type="myType" speed="13.88" pos="478.02" lane="road_hrz_1_0" slope="0.00"/>
        <vehicle id="f1.2" x="-233.19" y="-1.60" angle="90.00" type="myType" speed="13.88" pos="228.18" lane="road_hrz_1_0" slope="0.00"/>
        <vehicle id="f3.0" x="115.33" y="1.60" angle="270.00" type="myType" speed="13.88" pos="630.70" lane="road_hrz_3_0" slope="0.00"/>
        <vehicle id="f3.1" x="188.48" y="1.60" angle="270.00" type="myType" speed="13.88" pos="380.86" lane="road_hrz_3_0" slope="0.00"/>
        <vehicle id="f3.2" x="261.64" y="1.60" angle="270.00" type="myType" speed="13.88" pos="131.02" lane="road_hrz_3_0" slope="0.00"/>
    </timestep>
    <timestep time="53.00">
        <vehicle id="f1.0" x="-82.82" y="-1.60" angle="90.00" type="myType" speed="13.88" pos="741.74" lane="road_hrz_1_0" slope="0.00"/>
        <vehicle id="f1.1" x="-155.97" y="-1.60" angle="90.00" type="myType" speed="13.88" pos="491.90" lane="road_hrz_1_0" slope="0.00"/>
        <vehicle id="f1.2" x="-229.12" y="-1.60" angle="90.00" type="myType" speed="13.88" pos="242.06" lane="road_hrz_1_0" slope="0.00"/>
        <vehicle id="f3.0" x="111.27" y="1.60" angle="270.00" type="myType" speed="13.88" pos="644.58" lane="road_hrz_3_0" slope="0.00"/>