<?xml version="1.0" encoding="UTF-8"?>

<!-- generated on 2024-12-10 21:39:16 by Eclipse SUMO GUI Version 1.20.0
<configuration xmlns:xsi="http://www.w3.org/2001/XMLSchema-instance" xsi:noNamespaceSchemaLocation="http://sumo.dlr.de/xsd/sumoConfiguration.xsd">

    <input>
        <net-file value="./data/2x4_intersection.net.xml"/>
        <route-files value="./data/2x4_intersection.rou.xml"/>
    </input>

    <output>
        <netstate-dump value="./data/tutorial_netstate.xml"/>
        <fcd-output value="./data/tutorial_fcd.xml"/>
        <tripinfo-output value="./out/tripinfo.xml"/>
        <collision-output value="./out/collisions.xml"/>
        <statistic-output value="./out/statistics.xml"/>
    </output>

    <time>
        <step-length value="0.1"/>
    </time>

    <processing>
        <collision.action value="warn"/>
        <collision.stoptime value="0"/>
        <collision.check-junctions value="true"/>
        <collision.mingap-factor value="3"/>
    </processing>

    <traci_server>
        <remote-port value="62765"/>
    </traci_server>

</configuration>
-->

<netstate xmlns:xsi="http://www.w3.org/2001/XMLSchema-instance" xsi:noNamespaceSchemaLocation="http://sumo.dlr.de/xsd/netstate_file.xsd">
</netstate>
