<?xml version="1.0" encoding="UTF-8"?>

<!-- generated on 2024-12-03 22:42:59 by Eclipse SUMO GUI Version 1.20.0
<configuration xmlns:xsi="http://www.w3.org/2001/XMLSchema-instance" xsi:noNamespaceSchemaLocation="http://sumo.dlr.de/xsd/sumoConfiguration.xsd">

    <input>
        <net-file value="./data/2x4_intersection.net.xml"/>
        <route-files value="./data/2x4_intersection.rou.xml"/>
    </input>

    <output>
        <netstate-dump value="./data/tutorial_netstate.xml"/>
        <fcd-output value="./data/tutorial_fcd.xml"/>
        <tripinfo-output value="./out/tripinfo.xml"/>
        <collision-output value="./out/collisions.xml"/>
        <statistic-output value="./out/statistics.xml"/>
    </output>

    <traci_server>
        <remote-port value="58551"/>
    </traci_server>

</configuration>
-->

<netstate xmlns:xsi="http://www.w3.org/2001/XMLSchema-instance" xsi:noNamespaceSchemaLocation="http://sumo.dlr.de/xsd/netstate_file.xsd">
    <timestep time="0.00">
        <edge id="road_hrz_1">
            <lane id="road_hrz_1_0">
                <vehicle id="f1.0" pos="6.10" speed="0.00"/>
            </lane>
        </edge>
    </timestep>
    <timestep time="1.00">
        <edge id="road_hrz_1">
            <lane id="road_hrz_1_0">
                <vehicle id="f1.0" pos="19.98" speed="13.88"/>
            </lane>
        </edge>
    </timestep>
    <timestep time="2.00">
        <edge id="road_hrz_1">
            <lane id="road_hrz_1_0">
                <vehicle id="f1.0" pos="33.86" speed="13.88"/>
            </lane>
        </edge>
    </timestep>
    <timestep time="3.00">
        <edge id="road_hrz_1">
            <lane id="road_hrz_1_0">
                <vehicle id="f1.0" pos="47.74" speed="13.88"/>
            </lane>
        </edge>
    </timestep>
    <timestep time="4.00">
        <edge id="road_hrz_1">
            <lane id="road_hrz_1_0">
                <vehicle id="f1.0" pos="61.62" speed="13.88"/>
            </lane>
        </edge>
    </timestep>
    <timestep time="5.00">
        <edge id="road_hrz_1">
            <lane id="road_hrz_1_0">
                <vehicle id="f1.0" pos="75.50" speed="13.88"/>
            </lane>
        </edge>
    </timestep>
    <timestep time="6.00">
        <edge id="road_hrz_1">
            <lane id="road_hrz_1_0">
                <vehicle id="f1.0" pos="89.38" speed="13.88"/>
            </lane>
        </edge>
    </timestep>
    <timestep time="7.00">
        <edge id="road_hrz_1">
            <lane id="road_hrz_1_0">
                <vehicle id="f1.0" pos="103.26" speed="13.88"/>
            </lane>
        </edge>
        <edge id="road_hrz_3">
            <lane id="road_hrz_3_0">
                <vehicle id="f3.0" pos="6.10" speed="0.00"/>
            </lane>
        </edge>
    </timestep>
    <timestep time="8.00">
        <edge id="road_hrz_1">
            <lane id="road_hrz_1_0">
                <vehicle id="f1.0" pos="117.14" speed="13.88"/>
            </lane>
        </edge>
        <edge id="road_hrz_3">
            <lane id="road_hrz_3_0">
                <vehicle id="f3.0" pos="19.98" speed="13.88"/>
            </lane>
        </edge>
    </timestep>
    <timestep time="9.00">
        <edge id="road_hrz_1">
            <lane id="road_hrz_1_0">
                <vehicle id="f1.0" pos="131.02" speed="13.88"/>
            </lane>
        </edge>
        <edge id="road_hrz_3">
            <lane id="road_hrz_3_0">
                <vehicle id="f3.0" pos="33.86" speed="13.88"/>
            </lane>
        </edge>
    </timestep>
    <timestep time="10.00">
        <edge id="road_hrz_1">
            <lane id="road_hrz_1_0">
                <vehicle id="f1.0" pos="144.90" speed="13.88"/>
            </lane>
        </edge>
        <edge id="road_hrz_3">
            <lane id="road_hrz_3_0">
                <vehicle id="f3.0" pos="47.74" speed="13.88"/>
            </lane>
        </edge>
    </timestep>
    <timestep time="11.00">
        <edge id="road_hrz_1">
            <lane id="road_hrz_1_0">
                <vehicle id="f1.0" pos="158.78" speed="13.88"/>
            </lane>
        </edge>
        <edge id="road_hrz_3">
            <lane id="road_hrz_3_0">
                <vehicle id="f3.0" pos="61.62" speed="13.88"/>
            </lane>
        </edge>
    </timestep>
    <timestep time="12.00">
        <edge id="road_hrz_1">
            <lane id="road_hrz_1_0">
                <vehicle id="f1.0" pos="172.66" speed="13.88"/>
            </lane>
        </edge>
        <edge id="road_hrz_3">
            <lane id="road_hrz_3_0">
                <vehicle id="f3.0" pos="75.50" speed="13.88"/>
            </lane>
        </edge>
    </timestep>
    <timestep time="13.00">
        <edge id="road_hrz_1">
            <lane id="road_hrz_1_0">
                <vehicle id="f1.0" pos="186.54" speed="13.88"/>
            </lane>
        </edge>
        <edge id="road_hrz_3">
            <lane id="road_hrz_3_0">
                <vehicle id="f3.0" pos="89.38" speed="13.88"/>
            </lane>
        </edge>
    </timestep>
    <timestep time="14.00">
        <edge id="road_hrz_1">
            <lane id="road_hrz_1_0">
                <vehicle id="f1.0" pos="200.42" speed="13.88"/>
            </lane>
        </edge>
        <edge id="road_hrz_3">
            <lane id="road_hrz_3_0">
                <vehicle id="f3.0" pos="103.26" speed="13.88"/>
            </lane>
        </edge>
    </timestep>
    <timestep time="15.00">
        <edge id="road_hrz_1">
            <lane id="road_hrz_1_0">
                <vehicle id="f1.0" pos="214.30" speed="13.88"/>
            </lane>
        </edge>
        <edge id="road_hrz_3">
            <lane id="road_hrz_3_0">
                <vehicle id="f3.0" pos="117.14" speed="13.88"/>
            </lane>
        </edge>
    </timestep>
    <timestep time="16.00">
        <edge id="road_hrz_1">
            <lane id="road_hrz_1_0">
                <vehicle id="f1.0" pos="228.18" speed="13.88"/>
            </lane>
        </edge>
        <edge id="road_hrz_3">
            <lane id="road_hrz_3_0">
                <vehicle id="f3.0" pos="131.02" speed="13.88"/>
            </lane>
        </edge>
    </timestep>
    <timestep time="17.00">
        <edge id="road_hrz_1">
            <lane id="road_hrz_1_0">
                <vehicle id="f1.0" pos="242.06" speed="13.88"/>
            </lane>
        </edge>
        <edge id="road_hrz_3">
            <lane id="road_hrz_3_0">
                <vehicle id="f3.0" pos="144.90" speed="13.88"/>
            </lane>
        </edge>
    </timestep>
    <timestep time="18.00">
        <edge id="road_hrz_1">
            <lane id="road_hrz_1_0">
                <vehicle id="f1.1" pos="6.10" speed="0.00"/>
                <vehicle id="f1.0" pos="255.94" speed="13.88"/>
            </lane>
        </edge>
        <edge id="road_hrz_3">
            <lane id="road_hrz_3_0">
                <vehicle id="f3.0" pos="158.78" speed="13.88"/>
            </lane>
        </edge>
    </timestep>
    <timestep time="19.00">
        <edge id="road_hrz_1">
            <lane id="road_hrz_1_0">
                <vehicle id="f1.1" pos="19.98" speed="13.88"/>
                <vehicle id="f1.0" pos="269.82" speed="13.88"/>
            </lane>
        </edge>
        <edge id="road_hrz_3">
            <lane id="road_hrz_3_0">
                <vehicle id="f3.0" pos="172.66" speed="13.88"/>
            </lane>
        </edge>
    </timestep>
    <timestep time="20.00">
        <edge id="road_hrz_1">
            <lane id="road_hrz_1_0">
                <vehicle id="f1.1" pos="33.86" speed="13.88"/>
                <vehicle id="f1.0" pos="283.70" speed="13.88"/>
            </lane>
        </edge>
        <edge id="road_hrz_3">
            <lane id="road_hrz_3_0">
                <vehicle id="f3.0" pos="186.54" speed="13.88"/>
            </lane>
        </edge>
    </timestep>
    <timestep time="21.00">
        <edge id="road_hrz_1">
            <lane id="road_hrz_1_0">
                <vehicle id="f1.1" pos="47.74" speed="13.88"/>
                <vehicle id="f1.0" pos="297.58" speed="13.88"/>
            </lane>
        </edge>
        <edge id="road_hrz_3">
            <lane id="road_hrz_3_0">
                <vehicle id="f3.0" pos="200.42" speed="13.88"/>
            </lane>
        </edge>
    </timestep>
    <timestep time="22.00">
        <edge id="road_hrz_1">
            <lane id="road_hrz_1_0">
                <vehicle id="f1.1" pos="61.62" speed="13.88"/>
                <vehicle id="f1.0" pos="311.46" speed="13.88"/>
            </lane>
        </edge>
        <edge id="road_hrz_3">
            <lane id="road_hrz_3_0">
                <vehicle id="f3.0" pos="214.30" speed="13.88"/>
            </lane>
        </edge>
    </timestep>
    <timestep time="23.00">
        <edge id="road_hrz_1">
            <lane id="road_hrz_1_0">
                <vehicle id="f1.1" pos="75.50" speed="13.88"/>
                <vehicle id="f1.0" pos="325.34" speed="13.88"/>
            </lane>
        </edge>
        <edge id="road_hrz_3">
            <lane id="road_hrz_3_0">
                <vehicle id="f3.0" pos="228.18" speed="13.88"/>
            </lane>
        </edge>
    </timestep>
    <timestep time="24.00">
        <edge id="road_hrz_1">
            <lane id="road_hrz_1_0">
                <vehicle id="f1.1" pos="89.38" speed="13.88"/>
                <vehicle id="f1.0" pos="339.22" speed="13.88"/>
            </lane>
        </edge>
        <edge id="road_hrz_3">
            <lane id="road_hrz_3_0">
                <vehicle id="f3.0" pos="242.06" speed="13.88"/>
            </lane>
        </edge>
    </timestep>
    <timestep time="25.00">
        <edge id="road_hrz_1">
            <lane id="road_hrz_1_0">
                <vehicle id="f1.1" pos="103.26" speed="13.88"/>
                <vehicle id="f1.0" pos="353.10" speed="13.88"/>
            </lane>
        </edge>
        <edge id="road_hrz_3">
            <lane id="road_hrz_3_0">
                <vehicle id="f3.1" pos="6.10" speed="0.00"/>
                <vehicle id="f3.0" pos="255.94" speed="13.88"/>
            </lane>
        </edge>
    </timestep>
    <timestep time="26.00">
        <edge id="road_hrz_1">
            <lane id="road_hrz_1_0">
                <vehicle id="f1.1" pos="117.14" speed="13.88"/>
                <vehicle id="f1.0" pos="366.98" speed="13.88"/>
            </lane>
        </edge>
        <edge id="road_hrz_3">
            <lane id="road_hrz_3_0">
                <vehicle id="f3.1" pos="19.98" speed="13.88"/>
                <vehicle id="f3.0" pos="269.82" speed="13.88"/>
            </lane>
        </edge>
    </timestep>
    <timestep time="27.00">
        <edge id="road_hrz_1">
            <lane id="road_hrz_1_0">
                <vehicle id="f1.1" pos="131.02" speed="13.88"/>
                <vehicle id="f1.0" pos="380.86" speed="13.88"/>
            </lane>
        </edge>
        <edge id="road_hrz_3">
            <lane id="road_hrz_3_0">
                <vehicle id="f3.1" pos="33.86" speed="13.88"/>
                <vehicle id="f3.0" pos="283.70" speed="13.88"/>
            </lane>
        </edge>
    </timestep>
    <timestep time="28.00">
        <edge id="road_hrz_1">
            <lane id="road_hrz_1_0">
                <vehicle id="f1.1" pos="144.90" speed="13.88"/>
                <vehicle id="f1.0" pos="394.74" speed="13.88"/>
            </lane>
        </edge>
        <edge id="road_hrz_3">
            <lane id="road_hrz_3_0">
                <vehicle id="f3.1" pos="47.74" speed="13.88"/>
                <vehicle id="f3.0" pos="297.58" speed="13.88"/>
            </lane>
        </edge>
    </timestep>
    <timestep time="29.00">
        <edge id="road_hrz_1">
            <lane id="road_hrz_1_0">
                <vehicle id="f1.1" pos="158.78" speed="13.88"/>
                <vehicle id="f1.0" pos="408.62" speed="13.88"/>
            </lane>
        </edge>
        <edge id="road_hrz_3">
            <lane id="road_hrz_3_0">
                <vehicle id="f3.1" pos="61.62" speed="13.88"/>
                <vehicle id="f3.0" pos="311.46" speed="13.88"/>
            </lane>
        </edge>
    </timestep>
    <timestep time="30.00">
        <edge id="road_hrz_1">
            <lane id="road_hrz_1_0">
                <vehicle id="f1.1" pos="172.66" speed="13.88"/>
                <vehicle id="f1.0" pos="422.50" speed="13.88"/>
            </lane>
        </edge>
        <edge id="road_hrz_3">
            <lane id="road_hrz_3_0">
                <vehicle id="f3.1" pos="75.50" speed="13.88"/>
                <vehicle id="f3.0" pos="325.34" speed="13.88"/>
            </lane>
        </edge>
    </timestep>
    <timestep time="31.00">
        <edge id="road_hrz_1">
            <lane id="road_hrz_1_0">
                <vehicle id="f1.1" pos="186.54" speed="13.88"/>
                <vehicle id="f1.0" pos="436.38" speed="13.88"/>
            </lane>
        </edge>
        <edge id="road_hrz_3">
            <lane id="road_hrz_3_0">
                <vehicle id="f3.1" pos="89.38" speed="13.88"/>
                <vehicle id="f3.0" pos="339.22" speed="13.88"/>
            </lane>
        </edge>
    </timestep>
    <timestep time="32.00">
        <edge id="road_hrz_1">
            <lane id="road_hrz_1_0">
                <vehicle id="f1.1" pos="200.42" speed="13.88"/>
                <vehicle id="f1.0" pos="450.26" speed="13.88"/>
            </lane>
        </edge>
        <edge id="road_hrz_3">
            <lane id="road_hrz_3_0">
                <vehicle id="f3.1" pos="103.26" speed="13.88"/>
                <vehicle id="f3.0" pos="353.10" speed="13.88"/>
            </lane>
        </edge>
    </timestep>
    <timestep time="33.00">
        <edge id="road_hrz_1">
            <lane id="road_hrz_1_0">
                <vehicle id="f1.1" pos="214.30" speed="13.88"/>
                <vehicle id="f1.0" pos="464.14" speed="13.88"/>
            </lane>
        </edge>
        <edge id="road_hrz_3">
            <lane id="road_hrz_3_0">
                <vehicle id="f3.1" pos="117.14" speed="13.88"/>
                <vehicle id="f3.0" pos="366.98" speed="13.88"/>
            </lane>
        </edge>
    </timestep>
    <timestep time="34.00">
        <edge id="road_hrz_1">
            <lane id="road_hrz_1_0">
                <vehicle id="f1.1" pos="228.18" speed="13.88"/>
                <vehicle id="f1.0" pos="478.02" speed="13.88"/>
            </lane>
        </edge>
        <edge id="road_hrz_3">
            <lane id="road_hrz_3_0">
                <vehicle id="f3.1" pos="131.02" speed="13.88"/>
                <vehicle id="f3.0" pos="380.86" speed="13.88"/>
            </lane>
        </edge>
    </timestep>
    <timestep time="35.00">
        <edge id="road_hrz_1">
            <lane id="road_hrz_1_0">
                <vehicle id="f1.1" pos="242.06" speed="13.88"/>
                <vehicle id="f1.0" pos="491.90" speed="13.88"/>
            </lane>
        </edge>
        <edge id="road_hrz_3">
            <lane id="road_hrz_3_0">
                <vehicle id="f3.1" pos="144.90" speed="13.88"/>
                <vehicle id="f3.0" pos="394.74" speed="13.88"/>
            </lane>
        </edge>
    </timestep>
    <timestep time="36.00">
        <edge id="road_hrz_1">
            <lane id="road_hrz_1_0">
                <vehicle id="f1.2" pos="6.10" speed="0.00"/>
                <vehicle id="f1.1" pos="255.94" speed="13.88"/>
                <vehicle id="f1.0" pos="505.78" speed="13.88"/>
            </lane>
        </edge>
        <edge id="road_hrz_3">
            <lane id="road_hrz_3_0">
                <vehicle id="f3.1" pos="158.78" speed="13.88"/>
                <vehicle id="f3.0" pos="408.62" speed="13.88"/>
            </lane>
        </edge>
    </timestep>
    <timestep time="37.00">
        <edge id="road_hrz_1">
            <lane id="road_hrz_1_0">
                <vehicle id="f1.2" pos="19.98" speed="13.88"/>
                <vehicle id="f1.1" pos="269.82" speed="13.88"/>
                <vehicle id="f1.0" pos="519.66" speed="13.88"/>
            </lane>
        </edge>
        <edge id="road_hrz_3">
            <lane id="road_hrz_3_0">
                <vehicle id="f3.1" pos="172.66" speed="13.88"/>
                <vehicle id="f3.0" pos="422.50" speed="13.88"/>
            </lane>
        </edge>
    </timestep>
    <timestep time="38.00">
        <edge id="road_hrz_1">
            <lane id="road_hrz_1_0">
                <vehicle id="f1.2" pos="33.86" speed="13.88"/>
                <vehicle id="f1.1" pos="283.70" speed="13.88"/>
                <vehicle id="f1.0" pos="533.54" speed="13.88"/>
            </lane>
        </edge>
        <edge id="road_hrz_3">
            <lane id="road_hrz_3_0">
                <vehicle id="f3.1" pos="186.54" speed="13.88"/>
                <vehicle id="f3.0" pos="436.38" speed="13.88"/>
            </lane>
        </edge>
    </timestep>
    <timestep time="39.00">
        <edge id="road_hrz_1">
            <lane id="road_hrz_1_0">
                <vehicle id="f1.2" pos="47.74" speed="13.88"/>
                <vehicle id="f1.1" pos="297.58" speed="13.88"/>
                <vehicle id="f1.0" pos="547.42" speed="13.88"/>
            </lane>
        </edge>
        <edge id="road_hrz_3">
            <lane id="road_hrz_3_0">
                <vehicle id="f3.1" pos="200.42" speed="13.88"/>
                <vehicle id="f3.0" pos="450.26" speed="13.88"/>
            </lane>
        </edge>
    </timestep>
    <timestep time="40.00">
        <edge id="road_hrz_1">
            <lane id="road_hrz_1_0">
                <vehicle id="f1.2" pos="61.62" speed="13.88"/>
                <vehicle id="f1.1" pos="311.46" speed="13.88"/>
                <vehicle id="f1.0" pos="561.30" speed="13.88"/>
            </lane>
        </edge>
        <edge id="road_hrz_3">
            <lane id="road_hrz_3_0">
                <vehicle id="f3.1" pos="214.30" speed="13.88"/>
                <vehicle id="f3.0" pos="464.14" speed="13.88"/>
            </lane>
        </edge>
    </timestep>
    <timestep time="41.00">
        <edge id="road_hrz_1">
            <lane id="road_hrz_1_0">
                <vehicle id="f1.2" pos="75.50" speed="13.88"/>
                <vehicle id="f1.1" pos="325.34" speed="13.88"/>
                <vehicle id="f1.0" pos="575.18" speed="13.88"/>
            </lane>
        </edge>
        <edge id="road_hrz_3">
            <lane id="road_hrz_3_0">
                <vehicle id="f3.1" pos="228.18" speed="13.88"/>
                <vehicle id="f3.0" pos="478.02" speed="13.88"/>
            </lane>
        </edge>
    </timestep>
    <timestep time="42.00">
        <edge id="road_hrz_1">
            <lane id="road_hrz_1_0">
                <vehicle id="f1.2" pos="89.38" speed="13.88"/>
                <vehicle id="f1.1" pos="339.22" speed="13.88"/>
                <vehicle id="f1.0" pos="589.06" speed="13.88"/>
            </lane>
        </edge>
        <edge id="road_hrz_3">
            <lane id="road_hrz_3_0">
                <vehicle id="f3.1" pos="242.06" speed="13.88"/>
                <vehicle id="f3.0" pos="491.90" speed="13.88"/>
            </lane>
        </edge>
    </timestep>
    <timestep time="43.00">
        <edge id="road_hrz_1">
            <lane id="road_hrz_1_0">
                <vehicle id="f1.2" pos="103.26" speed="13.88"/>
                <vehicle id="f1.1" pos="353.10" speed="13.88"/>
                <vehicle id="f1.0" pos="602.94" speed="13.88"/>
            </lane>
        </edge>
        <edge id="road_hrz_3">
            <lane id="road_hrz_3_0">
                <vehicle id="f3.2" pos="6.10" speed="0.00"/>
                <vehicle id="f3.1" pos="255.94" speed="13.88"/>
                <vehicle id="f3.0" pos="505.78" speed="13.88"/>
            </lane>
        </edge>
    </timestep>
    <timestep time="44.00">
        <edge id="road_hrz_1">
            <lane id="road_hrz_1_0">
                <vehicle id="f1.2" pos="117.14" speed="13.88"/>
                <vehicle id="f1.1" pos="366.98" speed="13.88"/>
                <vehicle id="f1.0" pos="616.82" speed="13.88"/>
            </lane>
        </edge>
        <edge id="road_hrz_3">
            <lane id="road_hrz_3_0">
                <vehicle id="f3.2" pos="19.98" speed="13.88"/>
                <vehicle id="f3.1" pos="269.82" speed="13.88"/>
                <vehicle id="f3.0" pos="519.66" speed="13.88"/>
            </lane>
        </edge>
    </timestep>
    <timestep time="45.00">
        <edge id="road_hrz_1">
            <lane id="road_hrz_1_0">
                <vehicle id="f1.2" pos="131.02" speed="13.88"/>
                <vehicle id="f1.1" pos="380.86" speed="13.88"/>
                <vehicle id="f1.0" pos="630.70" speed="13.88"/>
            </lane>
        </edge>
        <edge id="road_hrz_3">
            <lane id="road_hrz_3_0">
                <vehicle id="f3.2" pos="33.86" speed="13.88"/>
                <vehicle id="f3.1" pos="283.70" speed="13.88"/>
                <vehicle id="f3.0" pos="533.54" speed="13.88"/>
            </lane>
        </edge>
    </timestep>
    <timestep time="46.00">
        <edge id="road_hrz_1">
            <lane id="road_hrz_1_0">
                <vehicle id="f1.2" pos="144.90" speed="13.88"/>
                <vehicle id="f1.1" pos="394.74" speed="13.88"/>
                <vehicle id="f1.0" pos="644.58" speed="13.88"/>
            </lane>
        </edge>
        <edge id="road_hrz_3">
            <lane id="road_hrz_3_0">
                <vehicle id="f3.2" pos="47.74" speed="13.88"/>
                <vehicle id="f3.1" pos="297.58" speed="13.88"/>
                <vehicle id="f3.0" pos="547.42" speed="13.88"/>
            </lane>
        </edge>
    </timestep>
    <timestep time="47.00">
        <edge id="road_hrz_1">
            <lane id="road_hrz_1_0">
                <vehicle id="f1.2" pos="158.78" speed="13.88"/>
                <vehicle id="f1.1" pos="408.62" speed="13.88"/>
                <vehicle id="f1.0" pos="658.46" speed="13.88"/>
            </lane>
        </edge>
        <edge id="road_hrz_3">
            <lane id="road_hrz_3_0">
                <vehicle id="f3.2" pos="61.62" speed="13.88"/>
                <vehicle id="f3.1" pos="311.46" speed="13.88"/>
                <vehicle id="f3.0" pos="561.30" speed="13.88"/>
            </lane>
        </edge>
    </timestep>
    <timestep time="48.00">
        <edge id="road_hrz_1">
            <lane id="road_hrz_1_0">
                <vehicle id="f1.2" pos="172.66" speed="13.88"/>
                <vehicle id="f1.1" pos="422.50" speed="13.88"/>
                <vehicle id="f1.0" pos="672.34" speed="13.88"/>
            </lane>
        </edge>
        <edge id="road_hrz_3">
            <lane id="road_hrz_3_0">
                <vehicle id="f3.2" pos="75.50" speed="13.88"/>
                <vehicle id="f3.1" pos="325.34" speed="13.88"/>
                <vehicle id="f3.0" pos="575.18" speed="13.88"/>
            </lane>
        </edge>
    </timestep>
    <timestep time="49.00">
        <edge id="road_hrz_1">
            <lane id="road_hrz_1_0">
                <vehicle id="f1.2" pos="186.54" speed="13.88"/>
                <vehicle id="f1.1" pos="436.38" speed="13.88"/>
                <vehicle id="f1.0" pos="686.22" speed="13.88"/>
            </lane>
        </edge>
        <edge id="road_hrz_3">
            <lane id="road_hrz_3_0">
                <vehicle id="f3.2" pos="89.38" speed="13.88"/>
                <vehicle id="f3.1" pos="339.22" speed="13.88"/>
                <vehicle id="f3.0" pos="589.06" speed="13.88"/>
            </lane>
        </edge>
    </timestep>
    <timestep time="50.00">
        <edge id="road_hrz_1">
            <lane id="road_hrz_1_0">
                <vehicle id="f1.2" pos="200.42" speed="13.88"/>
                <vehicle id="f1.1" pos="450.26" speed="13.88"/>
                <vehicle id="f1.0" pos="700.10" speed="13.88"/>
            </lane>
        </edge>
        <edge id="road_hrz_3">
            <lane id="road_hrz_3_0">
                <vehicle id="f3.2" pos="103.26" speed="13.88"/>
                <vehicle id="f3.1" pos="353.10" speed="13.88"/>
                <vehicle id="f3.0" pos="602.94" speed="13.88"/>
            </lane>
        </edge>
    </timestep>
    <timestep time="51.00">
        <edge id="road_hrz_1">
            <lane id="road_hrz_1_0">
                <vehicle id="f1.2" pos="214.30" speed="13.88"/>
                <vehicle id="f1.1" pos="464.14" speed="13.88"/>
                <vehicle id="f1.0" pos="713.98" speed="13.88"/>
            </lane>
        </edge>
        <edge id="road_hrz_3">
            <lane id="road_hrz_3_0">
                <vehicle id="f3.2" pos="117.14" speed="13.88"/>
                <vehicle id="f3.1" pos="366.98" speed="13.88"/>
                <vehicle id="f3.0" pos="616.82" speed="13.88"/>
            </lane>
        </edge>
    </timestep>
    <timestep time="52.00">
        <edge id="road_hrz_1">
            <lane id="road_hrz_1_0">
                <vehicle id="f1.2" pos="228.18" speed="13.88"/>
                <vehicle id="f1.1" pos="478.02" speed="13.88"/>
                <vehicle id="f1.0" pos="727.86" speed="13.88"/>
            </lane>
        </edge>
        <edge id="road_hrz_3">
            <lane id="road_hrz_3_0">
                <vehicle id="f3.2" pos="131.02" speed="13.88"/>
                <vehicle id="f3.1" pos="380.86" speed="13.88"/>
                <vehicle id="f3.0" pos="630.70" speed="13.88"/>
            </lane>
        </edge>
    </timestep>
    <timestep time="53.00">
        <edge id="road_hrz_1">
            <lane id="road_hrz_1_0">
                <vehicle id="f1.2" pos="242.06" speed="13.88"/>
                <vehicle id="f1.1" pos="491.90" speed="13.88"/>
                <vehicle id="f1.0" pos="741.74" speed="13.88"/>
            </lane>
        </edge>
        <edge id="road_hrz_3">
            <lane id="road_hrz_3_0">
                <vehicle id="f3.2" pos="144.90" speed="13.88"/>
                <vehicle id="f3.1" pos="394.74" speed="13.88"/>
                <vehicle id="f3.0" pos="644.58" speed="13.88"/>
            </lane>
        </edge>
    </timestep>
    <timestep time="54.00">
        <edge id="road_hrz_1">
            <lane id="road_hrz_1_0">
                <vehicle id="f1.3" pos="6.10" speed="0.00"/>
                <vehicle id="f1.2" pos="255.94" speed="13.88"/>
                <vehicle id="f1.1" pos="505.78" speed="13.88"/>
                <vehicle id="f1.0" pos="755.62" speed="13.88"/>
            </lane>
        </edge>
        <edge id="road_hrz_3">
            <lane id="road_hrz_3_0">
                <vehicle id="f3.2" pos="158.78" speed="13.88"/>
                <vehicle id="f3.1" pos="408.62" speed="13.88"/>
                <vehicle id="f3.0" pos="658.46" speed="13.88"/>
            </lane>
        </edge>
    </timestep>
    <timestep time="55.00">
        <edge id="road_hrz_1">
            <lane id="road_hrz_1_0">
                <vehicle id="f1.3" pos="19.98" speed="13.88"/>
                <vehicle id="f1.2" pos="269.82" speed="13.88"/>
                <vehicle id="f1.1" pos="519.66" speed="13.88"/>
                <vehicle id="f1.0" pos="769.50" speed="13.88"/>
            </lane>
        </edge>
        <edge id="road_hrz_3">
            <lane id="road_hrz_3_0">
                <vehicle id="f3.2" pos="172.66" speed="13.88"/>
                <vehicle id="f3.1" pos="422.50" speed="13.88"/>
                <vehicle id="f3.0" pos="672.34" speed="13.88"/>
            </lane>
        </edge>
    </timestep>
    <timestep time="56.00">
        <edge id="road_hrz_1">
            <lane id="road_hrz_1_0">
                <vehicle id="f1.3" pos="33.86" speed="13.88"/>
                <vehicle id="f1.2" pos="283.70" speed="13.88"/>
                <vehicle id="f1.1" pos="533.54" speed="13.88"/>
                <vehicle id="f1.0" pos="783.38" speed="13.88"/>
            </lane>
        </edge>
        <edge id="road_hrz_3">
            <lane id="road_hrz_3_0">
                <vehicle id="f3.2" pos="186.54" speed="13.88"/>
                <vehicle id="f3.1" pos="436.38" speed="13.88"/>
                <vehicle id="f3.0" pos="686.22" speed="13.88"/>
            </lane>
        </edge>
    </timestep>
    <timestep time="57.00">
        <edge id="road_hrz_1">
            <lane id="road_hrz_1_0">
                <vehicle id="f1.3" pos="47.74" speed="13.88"/>
                <vehicle id="f1.2" pos="297.58" speed="13.88"/>
                <vehicle id="f1.1" pos="547.42" speed="13.88"/>
                <vehicle id="f1.0" pos="797.26" speed="13.88"/>
            </lane>
        </edge>
        <edge id="road_hrz_3">
            <lane id="road_hrz_3_0">
                <vehicle id="f3.2" pos="200.42" speed="13.88"/>
                <vehicle id="f3.1" pos="450.26" speed="13.88"/>
                <vehicle id="f3.0" pos="700.10" speed="13.88"/>
            </lane>
        </edge>
    </timestep>
    <timestep time="58.00">
        <edge id="road_hrz_1">
            <lane id="road_hrz_1_0">
                <vehicle id="f1.3" pos="61.62" speed="13.88"/>
                <vehicle id="f1.2" pos="311.46" speed="13.88"/>
                <vehicle id="f1.1" pos="561.30" speed="13.88"/>
                <vehicle id="f1.0" pos="811.14" speed="13.88"/>
            </lane>
        </edge>
        <edge id="road_hrz_3">
            <lane id="road_hrz_3_0">
                <vehicle id="f3.2" pos="214.30" speed="13.88"/>
                <vehicle id="f3.1" pos="464.14" speed="13.88"/>
                <vehicle id="f3.0" pos="713.98" speed="13.88"/>
            </lane>
        </edge>
    </timestep>
    <timestep time="59.00">
        <edge id="road_hrz_1">
            <lane id="road_hrz_1_0">
                <vehicle id="f1.3" pos="75.50" speed="13.88"/>
                <vehicle id="f1.2" pos="325.34" speed="13.88"/>