<?xml version="1.0" encoding="UTF-8"?>

<!-- generated on 2024-11-19 20:46:48 by Eclipse SUMO GUI Version 1.20.0
<configuration xmlns:xsi="http://www.w3.org/2001/XMLSchema-instance" xsi:noNamespaceSchemaLocation="http://sumo.dlr.de/xsd/sumoConfiguration.xsd">

    <input>
        <net-file value="../data/2x4_intersection.net.xml"/>
        <route-files value="../data/2x4_intersection.rou.xml"/>
    </input>

    <output>
        <netstate-dump value="../data/tutorial_netstate.xml"/>
        <fcd-output value="../data/tutorial_fcd.xml"/>
        <tripinfo-output value="../out/tripinfo.xml"/>
        <collision-output value="../out/collisions.xml"/>
        <statistic-output value="../out/statistics.xml"/>
    </output>

    <traci_server>
        <remote-port value="51130"/>
    </traci_server>

</configuration>
-->

<fcd-export xmlns:xsi="http://www.w3.org/2001/XMLSchema-instance" xsi:noNamespaceSchemaLocation="http://sumo.dlr.de/xsd/fcd_file.xsd">
    <timestep time="0.00">
        <vehicle id="veh_0" x="-298.51" y="-1.60" angle="90.00" type="DEFAULT_VEHTYPE" speed="0.00" pos="5.10" lane="road_hrz_1_0" slope="0.00"/>
        <vehicle id="veh_1" x="-1.60" y="298.51" angle="180.00" type="DEFAULT_VEHTYPE" speed="0.00" pos="5.10" lane="road_ver_1_0" slope="0.00"/>
        <vehicle id="veh_2" x="298.51" y="1.60" angle="270.00" type="DEFAULT_VEHTYPE" speed="0.00" pos="5.10" lane="road_hrz_3_0" slope="0.00"/>
        <vehicle id="veh_3" x="1.60" y="-298.51" angle="0.00" type="DEFAULT_VEHTYPE" speed="0.00" pos="5.10" lane="road_ver_3_0" slope="0.00"/>
    </timestep>
    <timestep time="1.00">
        <vehicle id="veh_0" x="-294.44" y="-1.60" angle="90.00" type="DEFAULT_VEHTYPE" speed="13.88" pos="18.98" lane="road_hrz_1_0" slope="0.00"/>
        <vehicle id="veh_1" x="-1.60" y="294.44" angle="180.00" type="DEFAULT_VEHTYPE" speed="13.88" pos="18.98" lane="road_ver_1_0" slope="0.00"/>
        <vehicle id="veh_2" x="294.44" y="1.60" angle="270.00" type="DEFAULT_VEHTYPE" speed="13.88" pos="18.98" lane="road_hrz_3_0" slope="0.00"/>
        <vehicle id="veh_3" x="1.60" y="-294.44" angle="0.00" type="DEFAULT_VEHTYPE" speed="13.88" pos="18.98" lane="road_ver_3_0" slope="0.00"/>
        <vehicle id="veh_4" x="-298.51" y="-1.60" angle="90.00" type="DEFAULT_VEHTYPE" speed="0.00" pos="5.10" lane="road_hrz_1_0" slope="0.00"/>
        <vehicle id="veh_5" x="298.51" y="1.60" angle="270.00" type="DEFAULT_VEHTYPE" speed="0.00" pos="5.10" lane="road_hrz_3_0" slope="0.00"/>
        <vehicle id="veh_6" x="1.60" y="-298.51" angle="0.00" type="DEFAULT_VEHTYPE" speed="0.00" pos="5.10" lane="road_ver_3_0" slope="0.00"/>
    </timestep>
    <timestep time="2.00">
        <vehicle id="veh_0" x="-290.38" y="-1.60" angle="90.00" type="DEFAULT_VEHTYPE" speed="13.88" pos="32.86" lane="road_hrz_1_0" slope="0.00"/>
        <vehicle id="veh_1" x="-1.60" y="290.38" angle="180.00" type="DEFAULT_VEHTYPE" speed="13.88" pos="32.86" lane="road_ver_1_0" slope="0.00"/>
        <vehicle id="veh_2" x="290.38" y="1.60" angle="270.00" type="DEFAULT_VEHTYPE" speed="13.88" pos="32.86" lane="road_hrz_3_0" slope="0.00"/>
        <vehicle id="veh_3" x="1.60" y="-290.38" angle="0.00" type="DEFAULT_VEHTYPE" speed="13.88" pos="32.86" lane="road_ver_3_0" slope="0.00"/>
        <vehicle id="veh_4" x="-294.44" y="-1.60" angle="90.00" type="DEFAULT_VEHTYPE" speed="13.88" pos="18.98" lane="road_hrz_1_0" slope="0.00"/>
        <vehicle id="veh_5" x="294.44" y="1.60" angle="270.00" type="DEFAULT_VEHTYPE" speed="13.88" pos="18.98" lane="road_hrz_3_0" slope="0.00"/>
        <vehicle id="veh_6" x="1.60" y="-294.44" angle="0.00" type="DEFAULT_VEHTYPE" speed="13.88" pos="18.98" lane="road_ver_3_0" slope="0.00"/>
        <vehicle id="veh_7" x="-298.51" y="-1.60" angle="90.00" type="DEFAULT_VEHTYPE" speed="0.00" pos="5.10" lane="road_hrz_1_0" slope="0.00"/>
        <vehicle id="veh_8" x="298.51" y="1.60" angle="270.00" type="DEFAULT_VEHTYPE" speed="0.00" pos="5.10" lane="road_hrz_3_0" slope="0.00"/>
        <vehicle id="veh_9" x="1.60" y="-298.51" angle="0.00" type="DEFAULT_VEHTYPE" speed="0.00" pos="5.10" lane="road_ver_3_0" slope="0.00"/>
    </timestep>
    <timestep time="3.00">
        <vehicle id="veh_0" x="-286.31" y="-1.60" angle="90.00" type="DEFAULT_VEHTYPE" speed="13.88" pos="46.74" lane="road_hrz_1_0" slope="0.00"/>
        <vehicle id="veh_1" x="-1.60" y="286.31" angle="180.00" type="DEFAULT_VEHTYPE" speed="13.88" pos="46.74" lane="road_ver_1_0" slope="0.00"/>
        <vehicle id="veh_10" x="1.60" y="-298.51" angle="0.00" type="DEFAULT_VEHTYPE" speed="0.00" pos="5.10" lane="road_ver_3_0" slope="0.00"/>
        <vehicle id="veh_2" x="286.31" y="1.60" angle="270.00" type="DEFAULT_VEHTYPE" speed="13.88" pos="46.74" lane="road_hrz_3_0" slope="0.00"/>
        <vehicle id="veh_3" x="1.60" y="-286.31" angle="0.00" type="DEFAULT_VEHTYPE" speed="13.88" pos="46.74" lane="road_ver_3_0" slope="0.00"/>
        <vehicle id="veh_4" x="-290.38" y="-1.60" angle="90.00" type="DEFAULT_VEHTYPE" speed="13.88" pos="32.86" lane="road_hrz_1_0" slope="0.00"/>
        <vehicle id="veh_5" x="290.38" y="1.60" angle="270.00" type="DEFAULT_VEHTYPE" speed="13.88" pos="32.86" lane="road_hrz_3_0" slope="0.00"/>
        <vehicle id="veh_6" x="1.60" y="-290.38" angle="0.00" type="DEFAULT_VEHTYPE" speed="13.88" pos="32.86" lane="road_ver_3_0" slope="0.00"/>
        <vehicle id="veh_7" x="-294.44" y="-1.60" angle="90.00" type="DEFAULT_VEHTYPE" speed="13.88" pos="18.98" lane="road_hrz_1_0" slope="0.00"/>
        <vehicle id="veh_8" x="294.44" y="1.60" angle="270.00" type="DEFAULT_VEHTYPE" speed="13.88" pos="18.98" lane="road_hrz_3_0" slope="0.00"/>
        <vehicle id="veh_9" x="1.60" y="-294.44" angle="0.00" type="DEFAULT_VEHTYPE" speed="13.88" pos="18.98" lane="road_ver_3_0" slope="0.00"/>
    </timestep>
    <timestep time="4.00">
        <vehicle id="veh_0" x="-282.25" y="-1.60" angle="90.00" type="DEFAULT_VEHTYPE" speed="13.88" pos="60.62" lane="road_hrz_1_0" slope="0.00"/>
        <vehicle id="veh_1" x="-1.60" y="282.25" angle="180.00" type="DEFAULT_VEHTYPE" speed="13.88" pos="60.62" lane="road_ver_1_0" slope="0.00"/>
        <vehicle id="veh_10" x="1.60" y="-294.44" angle="0.00" type="DEFAULT_VEHTYPE" speed="13.88" pos="18.98" lane="road_ver_3_0" slope="0.00"/>
        <vehicle id="veh_11" x="1.60" y="-298.51" angle="0.00" type="DEFAULT_VEHTYPE" speed="0.00" pos="5.10" lane="road_ver_3_0" slope="0.00"/>
        <vehicle id="veh_2" x="282.25" y="1.60" angle="270.00" type="DEFAULT_VEHTYPE" speed="13.88" pos="60.62" lane="road_hrz_3_0" slope="0.00"/>
        <vehicle id="veh_3" x="1.60" y="-282.25" angle="0.00" type="DEFAULT_VEHTYPE" speed="13.88" pos="60.62" lane="road_ver_3_0" slope="0.00"/>
        <vehicle id="veh_4" x="-286.31" y="-1.60" angle="90.00" type="DEFAULT_VEHTYPE" speed="13.88" pos="46.74" lane="road_hrz_1_0" slope="0.00"/>
        <vehicle id="veh_5" x="286.31" y="1.60" angle="270.00" type="DEFAULT_VEHTYPE" speed="13.88" pos="46.74" lane="road_hrz_3_0" slope="0.00"/>
        <vehicle id="veh_6" x="1.60" y="-286.31" angle="0.00" type="DEFAULT_VEHTYPE" speed="13.88" pos="46.74" lane="road_ver_3_0" slope="0.00"/>
        <vehicle id="veh_7" x="-290.38" y="-1.60" angle="90.00" type="DEFAULT_VEHTYPE" speed="13.88" pos="32.86" lane="road_hrz_1_0" slope="0.00"/>
        <vehicle id="veh_8" x="290.38" y="1.60" angle="270.00" type="DEFAULT_VEHTYPE" speed="13.88" pos="32.86" lane="road_hrz_3_0" slope="0.00"/>
        <vehicle id="veh_9" x="1.60" y="-290.38" angle="0.00" type="DEFAULT_VEHTYPE" speed="13.88" pos="32.86" lane="road_ver_3_0" slope="0.00"/>
    </timestep>
    <timestep time="5.00">
        <vehicle id="veh_0" x="-278.19" y="-1.60" angle="90.00" type="DEFAULT_VEHTYPE" speed="13.88" pos="74.50" lane="road_hrz_1_0" slope="0.00"/>
        <vehicle id="veh_1" x="-1.60" y="278.19" angle="180.00" type="DEFAULT_VEHTYPE" speed="13.88" pos="74.50" lane="road_ver_1_0" slope="0.00"/>
        <vehicle id="veh_10" x="1.60" y="-290.38" angle="0.00" type="DEFAULT_VEHTYPE" speed="13.88" pos="32.86" lane="road_ver_3_0" slope="0.00"/>
        <vehicle id="veh_11" x="1.60" y="-294.44" angle="0.00" type="DEFAULT_VEHTYPE" speed="13.88" pos="18.98" lane="road_ver_3_0" slope="0.00"/>
        <vehicle id="veh_2" x="278.19" y="1.60" angle="270.00" type="DEFAULT_VEHTYPE" speed="13.88" pos="74.50" lane="road_hrz_3_0" slope="0.00"/>
        <vehicle id="veh_3" x="1.60" y="-278.19" angle="0.00" type="DEFAULT_VEHTYPE" speed="13.88" pos="74.50" lane="road_ver_3_0" slope="0.00"/>
        <vehicle id="veh_4" x="-282.25" y="-1.60" angle="90.00" type="DEFAULT_VEHTYPE" speed="13.88" pos="60.62" lane="road_hrz_1_0" slope="0.00"/>
        <vehicle id="veh_5" x="282.25" y="1.60" angle="270.00" type="DEFAULT_VEHTYPE" speed="13.88" pos="60.62" lane="road_hrz_3_0" slope="0.00"/>
        <vehicle id="veh_6" x="1.60" y="-282.25" angle="0.00" type="DEFAULT_VEHTYPE" speed="13.88" pos="60.62" lane="road_ver_3_0" slope="0.00"/>
        <vehicle id="veh_7" x="-286.31" y="-1.60" angle="90.00" type="DEFAULT_VEHTYPE" speed="13.88" pos="46.74" lane="road_hrz_1_0" slope="0.00"/>
        <vehicle id="veh_8" x="286.31" y="1.60" angle="270.00" type="DEFAULT_VEHTYPE" speed="13.88" pos="46.74" lane="road_hrz_3_0" slope="0.00"/>
        <vehicle id="veh_9" x="1.60" y="-286.31" angle="0.00" type="DEFAULT_VEHTYPE" speed="13.88" pos="46.74" lane="road_ver_3_0" slope="0.00"/>
    </timestep>
    <timestep time="6.00">
        <vehicle id="veh_0" x="-274.12" y="-1.60" angle="90.00" type="DEFAULT_VEHTYPE" speed="13.88" pos="88.38" lane="road_hrz_1_0" slope="0.00"/>
        <vehicle id="veh_1" x="-1.60" y="274.12" angle="180.00" type="DEFAULT_VEHTYPE" speed="13.88" pos="88.38" lane="road_ver_1_0" slope="0.00"/>
        <vehicle id="veh_10" x="1.60" y="-286.31" angle="0.00" type="DEFAULT_VEHTYPE" speed="13.88" pos="46.74" lane="road_ver_3_0" slope="0.00"/>
        <vehicle id="veh_11" x="1.60" y="-290.38" angle="0.00" type="DEFAULT_VEHTYPE" speed="13.88" pos="32.86" lane="road_ver_3_0" slope="0.00"/>
        <vehicle id="veh_2" x="274.12" y="1.60" angle="270.00" type="DEFAULT_VEHTYPE" speed="13.88" pos="88.38" lane="road_hrz_3_0" slope="0.00"/>
        <vehicle id="veh_3" x="1.60" y="-274.12" angle="0.00" type="DEFAULT_VEHTYPE" speed="13.88" pos="88.38" lane="road_ver_3_0" slope="0.00"/>
        <vehicle id="veh_4" x="-278.19" y="-1.60" angle="90.00" type="DEFAULT_VEHTYPE" speed="13.88" pos="74.50" lane="road_hrz_1_0" slope="0.00"/>
        <vehicle id="veh_5" x="278.19" y="1.60" angle="270.00" type="DEFAULT_VEHTYPE" speed="13.88" pos="74.50" lane="road_hrz_3_0" slope="0.00"/>
        <vehicle id="veh_6" x="1.60" y="-278.19" angle="0.00" type="DEFAULT_VEHTYPE" speed="13.88" pos="74.50" lane="road_ver_3_0" slope="0.00"/>
        <vehicle id="veh_7" x="-282.25" y="-1.60" angle="90.00" type="DEFAULT_VEHTYPE" speed="13.88" pos="60.62" lane="road_hrz_1_0" slope="0.00"/>
        <vehicle id="veh_8" x="282.25" y="1.60" angle="270.00" type="DEFAULT_VEHTYPE" speed="13.88" pos="60.62" lane="road_hrz_3_0" slope="0.00"/>
        <vehicle id="veh_9" x="1.60" y="-282.25" angle="0.00" type="DEFAULT_VEHTYPE" speed="13.88" pos="60.62" lane="road_ver_3_0" slope="0.00"/>
    </timestep>
    <timestep time="7.00">
        <vehicle id="veh_0" x="-270.06" y="-1.60" angle="90.00" type="DEFAULT_VEHTYPE" speed="13.88" pos="102.26" lane="road_hrz_1_0" slope="0.00"/>
        <vehicle id="veh_1" x="-1.60" y="270.06" angle="180.00" type="DEFAULT_VEHTYPE" speed="13.88" pos="102.26" lane="road_ver_1_0" slope="0.00"/>
        <vehicle id="veh_10" x="1.60" y="-282.25" angle="0.00" type="DEFAULT_VEHTYPE" speed="13.88" pos="60.62" lane="road_ver_3_0" slope="0.00"/>
        <vehicle id="veh_11" x="1.60" y="-286.31" angle="0.00" type="DEFAULT_VEHTYPE" speed="13.88" pos="46.74" lane="road_ver_3_0" slope="0.00"/>
        <vehicle id="veh_2" x="270.06" y="1.60" angle="270.00" type="DEFAULT_VEHTYPE" speed="13.88" pos="102.26" lane="road_hrz_3_0" slope="0.00"/>
        <vehicle id="veh_3" x="1.60" y="-270.06" angle="0.00" type="DEFAULT_VEHTYPE" speed="13.88" pos="102.26" lane="road_ver_3_0" slope="0.00"/>
        <vehicle id="veh_4" x="-274.12" y="-1.60" angle="90.00" type="DEFAULT_VEHTYPE" speed="13.88" pos="88.38" lane="road_hrz_1_0" slope="0.00"/>
        <vehicle id="veh_5" x="274.12" y="1.60" angle="270.00" type="DEFAULT_VEHTYPE" speed="13.88" pos="88.38" lane="road_hrz_3_0" slope="0.00"/>
        <vehicle id="veh_6" x="1.60" y="-274.12" angle="0.00" type="DEFAULT_VEHTYPE" speed="13.88" pos="88.38" lane="road_ver_3_0" slope="0.00"/>
        <vehicle id="veh_7" x="-278.19" y="-1.60" angle="90.00" type="DEFAULT_VEHTYPE" speed="13.88" pos="74.50" lane="road_hrz_1_0" slope="0.00"/>
        <vehicle id="veh_8" x="278.19" y="1.60" angle="270.00" type="DEFAULT_VEHTYPE" speed="13.88" pos="74.50" lane="road_hrz_3_0" slope="0.00"/>
        <vehicle id="veh_9" x="1.60" y="-278.19" angle="0.00" type="DEFAULT_VEHTYPE" speed="13.88" pos="74.50" lane="road_ver_3_0" slope="0.00"/>
    </timestep>
    <timestep time="8.00">
        <vehicle id="veh_0" x="-265.99" y="-1.60" angle="90.00" type="DEFAULT_VEHTYPE" speed="13.88" pos="116.14" lane="road_hrz_1_0" slope="0.00"/>
        <vehicle id="veh_1" x="-1.60" y="265.99" angle="180.00" type="DEFAULT_VEHTYPE" speed="13.88" pos="116.14" lane="road_ver_1_0" slope="0.00"/>
        <vehicle id="veh_10" x="1.60" y="-278.19" angle="0.00" type="DEFAULT_VEHTYPE" speed="13.88" pos="74.50" lane="road_ver_3_0" slope="0.00"/>
        <vehicle id="veh_11" x="1.60" y="-282.25" angle="0.00" type="DEFAULT_VEHTYPE" speed="13.88" pos="60.62" lane="road_ver_3_0" slope="0.00"/>
        <vehicle id="veh_2" x="265.99" y="1.60" angle="270.00" type="DEFAULT_VEHTYPE" speed="13.88" pos="116.14" lane="road_hrz_3_0" slope="0.00"/>
        <vehicle id="veh_3" x="1.60" y="-265.99" angle="0.00" type="DEFAULT_VEHTYPE" speed="13.88" pos="116.14" lane="road_ver_3_0" slope="0.00"/>
        <vehicle id="veh_4" x="-270.06" y="-1.60" angle="90.00" type="DEFAULT_VEHTYPE" speed="13.88" pos="102.26" lane="road_hrz_1_0" slope="0.00"/>
        <vehicle id="veh_5" x="270.06" y="1.60" angle="270.00" type="DEFAULT_VEHTYPE" speed="13.88" pos="102.26" lane="road_hrz_3_0" slope="0.00"/>
        <vehicle id="veh_6" x="1.60" y="-270.06" angle="0.00" type="DEFAULT_VEHTYPE" speed="13.88" pos="102.26" lane="road_ver_3_0" slope="0.00"/>
        <vehicle id="veh_7" x="-274.12" y="-1.60" angle="90.00" type="DEFAULT_VEHTYPE" speed="13.88" pos="88.38" lane="road_hrz_1_0" slope="0.00"/>
        <vehicle id="veh_8" x="274.12" y="1.60" angle="270.00" type="DEFAULT_VEHTYPE" speed="13.88" pos="88.38" lane="road_hrz_3_0" slope="0.00"/>
        <vehicle id="veh_9" x="1.60" y="-274.12" angle="0.00" type="DEFAULT_VEHTYPE" speed="13.88" pos="88.38" lane="road_ver_3_0" slope="0.00"/>
    </timestep>
    <timestep time="9.00">
        <vehicle id="veh_0" x="-261.93" y="-1.60" angle="90.00" type="DEFAULT_VEHTYPE" speed="13.88" pos="130.02" lane="road_hrz_1_0" slope="0.00"/>
        <vehicle id="veh_1" x="-1.60" y="261.93" angle="180.00" type="DEFAULT_VEHTYPE" speed="13.88" pos="130.02" lane="road_ver_1_0" slope="0.00"/>
        <vehicle id="veh_10" x="1.60" y="-274.12" angle="0.00" type="DEFAULT_VEHTYPE" speed="13.88" pos="88.38" lane="road_ver_3_0" slope="0.00"/>
        <vehicle id="veh_11" x="1.60" y="-278.19" angle="0.00" type="DEFAULT_VEHTYPE" speed="13.88" pos="74.50" lane="road_ver_3_0" slope="0.00"/>
        <vehicle id="veh_2" x="261.93" y="1.60" angle="270.00" type="DEFAULT_VEHTYPE" speed="13.88" pos="130.02" lane="road_hrz_3_0" slope="0.00"/>
        <vehicle id="veh_3" x="1.60" y="-261.93" angle="0.00" type="DEFAULT_VEHTYPE" speed="13.88" pos="130.02" lane="road_ver_3_0" slope="0.00"/>
        <vehicle id="veh_4" x="-265.99" y="-1.60" angle="90.00" type="DEFAULT_VEHTYPE" speed="13.88" pos="116.14" lane="road_hrz_1_0" slope="0.00"/>
        <vehicle id="veh_5" x="265.99" y="1.60" angle="270.00" type="DEFAULT_VEHTYPE" speed="13.88" pos="116.14" lane="road_hrz_3_0" slope="0.00"/>
        <vehicle id="veh_6" x="1.60" y="-265.99" angle="0.00" type="DEFAULT_VEHTYPE" speed="13.88" pos="116.14" lane="road_ver_3_0" slope="0.00"/>
        <vehicle id="veh_7" x="-270.06" y="-1.60" angle="90.00" type="DEFAULT_VEHTYPE" speed="13.88" pos="102.26" lane="road_hrz_1_0" slope="0.00"/>
        <vehicle id="veh_8" x="270.06" y="1.60" angle="270.00" type="DEFAULT_VEHTYPE" speed="13.88" pos="102.26" lane="road_hrz_3_0" slope="0.00"/>
        <vehicle id="veh_9" x="1.60" y="-270.06" angle="0.00" type="DEFAULT_VEHTYPE" speed="13.88" pos="102.26" lane="road_ver_3_0" slope="0.00"/>
    </timestep>
    <timestep time="10.00">
        <vehicle id="veh_0" x="-257.87" y="-1.60" angle="90.00" type="DEFAULT_VEHTYPE" speed="13.88" pos="143.90" lane="road_hrz_1_0" slope="0.00"/>
        <vehicle id="veh_1" x="-1.60" y="257.87" angle="180.00" type="DEFAULT_VEHTYPE" speed="13.88" pos="143.90" lane="road_ver_1_0" slope="0.00"/>
        <vehicle id="veh_10" x="1.60" y="-270.06" angle="0.00" type="DEFAULT_VEHTYPE" speed="13.88" pos="102.26" lane="road_ver_3_0" slope="0.00"/>
        <vehicle id="veh_11" x="1.60" y="-274.12" angle="0.00" type="DEFAULT_VEHTYPE" speed="13.88" pos="88.38" lane="road_ver_3_0" slope="0.00"/>
        <vehicle id="veh_2" x="257.87" y="1.60" angle="270.00" type="DEFAULT_VEHTYPE" speed="13.88" pos="143.90" lane="road_hrz_3_0" slope="0.00"/>
        <vehicle id="veh_3" x="1.60" y="-257.87" angle="0.00" type="DEFAULT_VEHTYPE" speed="13.88" pos="143.90" lane="road_ver_3_0" slope="0.00"/>
        <vehicle id="veh_4" x="-261.93" y="-1.60" angle="90.00" type="DEFAULT_VEHTYPE" speed="13.88" pos="130.02" lane="road_hrz_1_0" slope="0.00"/>
        <vehicle id="veh_5" x="261.93" y="1.60" angle="270.00" type="DEFAULT_VEHTYPE" speed="13.88" pos="130.02" lane="road_hrz_3_0" slope="0.00"/>
        <vehicle id="veh_6" x="1.60" y="-261.93" angle="0.00" type="DEFAULT_VEHTYPE" speed="13.88" pos="130.02" lane="road_ver_3_0" slope="0.00"/>
        <vehicle id="veh_7" x="-265.99" y="-1.60" angle="90.00" type="DEFAULT_VEHTYPE" speed="13.88" pos="116.14" lane="road_hrz_1_0" slope="0.00"/>
        <vehicle id="veh_8" x="265.99" y="1.60" angle="270.00" type="DEFAULT_VEHTYPE" speed="13.88" pos="116.14" lane="road_hrz_3_0" slope="0.00"/>
        <vehicle id="veh_9" x="1.60" y="-265.99" angle="0.00" type="DEFAULT_VEHTYPE" speed="13.88" pos="116.14" lane="road_ver_3_0" slope="0.00"/>
    </timestep>
    <timestep time="11.00">
        <vehicle id="veh_0" x="-253.80" y="-1.60" angle="90.00" type="DEFAULT_VEHTYPE" speed="13.88" pos="157.78" lane="road_hrz_1_0" slope="0.00"/>
        <vehicle id="veh_1" x="-1.60" y="253.80" angle="180.00" type="DEFAULT_VEHTYPE" speed="13.88" pos="157.78" lane="road_ver_1_0" slope="0.00"/>
        <vehicle id="veh_10" x="1.60" y="-265.99" angle="0.00" type="DEFAULT_VEHTYPE" speed="13.88" pos="116.14" lane="road_ver_3_0" slope="0.00"/>
        <vehicle id="veh_11" x="1.60" y="-270.06" angle="0.00" type="DEFAULT_VEHTYPE" speed="13.88" pos="102.26" lane="road_ver_3_0" slope="0.00"/>
        <vehicle id="veh_2" x="253.80" y="1.60" angle="270.00" type="DEFAULT_VEHTYPE" speed="13.88" pos="157.78" lane="road_hrz_3_0" slope="0.00"/>
        <vehicle id="veh_3" x="1.60" y="-253.80" angle="0.00" type="DEFAULT_VEHTYPE" speed="13.88" pos="157.78" lane="road_ver_3_0" slope="0.00"/>
        <vehicle id="veh_4" x="-257.87" y="-1.60" angle="90.00" type="DEFAULT_VEHTYPE" speed="13.88" pos="143.90" lane="road_hrz_1_0" slope="0.00"/>
        <vehicle id="veh_5" x="257.87" y="1.60" angle="270.00" type="DEFAULT_VEHTYPE" speed="13.88" pos="143.90" lane="road_hrz_3_0" slope="0.00"/>
        <vehicle id="veh_6" x="1.60" y="-257.87" angle="0.00" type="DEFAULT_VEHTYPE" speed="13.88" pos="143.90" lane="road_ver_3_0" slope="0.00"/>
        <vehicle id="veh_7" x="-261.93" y="-1.60" angle="90.00" type="DEFAULT_VEHTYPE" speed="13.88" pos="130.02" lane="road_hrz_1_0" slope="0.00"/>
        <vehicle id="veh_8" x="261.93" y="1.60" angle="270.00" type="DEFAULT_VEHTYPE" speed="13.88" pos="130.02" lane="road_hrz_3_0" slope="0.00"/>
        <vehicle id="veh_9" x="1.60" y="-261.93" angle="0.00" type="DEFAULT_VEHTYPE" speed="13.88" pos="130.02" lane="road_ver_3_0" slope="0.00"/>
    </timestep>
    <timestep time="12.00">
        <vehicle id="veh_0" x="-249.74" y="-1.60" angle="90.00" type="DEFAULT_VEHTYPE" speed="13.88" pos="171.66" lane="road_hrz_1_0" slope="0.00"/>
        <vehicle id="veh_1" x="-1.60" y="249.74" angle="180.00" type="DEFAULT_VEHTYPE" speed="13.88" pos="171.66" lane="road_ver_1_0" slope="0.00"/>
        <vehicle id="veh_10" x="1.60" y="-261.93" angle="0.00" type="DEFAULT_VEHTYPE" speed="13.88" pos="130.02" lane="road_ver_3_0" slope="0.00"/>
        <vehicle id="veh_11" x="1.60" y="-265.99" angle="0.00" type="DEFAULT_VEHTYPE" speed="13.88" pos="116.14" lane="road_ver_3_0" slope="0.00"/>
        <vehicle id="veh_2" x="249.74" y="1.60" angle="270.00" type="DEFAULT_VEHTYPE" speed="13.88" pos="171.66" lane="road_hrz_3_0" slope="0.00"/>
        <vehicle id="veh_3" x="1.60" y="-249.74" angle="0.00" type="DEFAULT_VEHTYPE" speed="13.88" pos="171.66" lane="road_ver_3_0" slope="0.00"/>
        <vehicle id="veh_4" x="-253.80" y="-1.60" angle="90.00" type="DEFAULT_VEHTYPE" speed="13.88" pos="157.78" lane="road_hrz_1_0" slope="0.00"/>
        <vehicle id="veh_5" x="253.80" y="1.60" angle="270.00" type="DEFAULT_VEHTYPE" speed="13.88" pos="157.78" lane="road_hrz_3_0" slope="0.00"/>
        <vehicle id="veh_6" x="1.60" y="-253.80" angle="0.00" type="DEFAULT_VEHTYPE" speed="13.88" pos="157.78" lane="road_ver_3_0" slope="0.00"/>
        <vehicle id="veh_7" x="-257.87" y="-1.60" angle="90.00" type="DEFAULT_VEHTYPE" speed="13.88" pos="143.90" lane="road_hrz_1_0" slope="0.00"/>
        <vehicle id="veh_8" x="257.87" y="1.60" angle="270.00" type="DEFAULT_VEHTYPE" speed="13.88" pos="143.90" lane="road_hrz_3_0" slope="0.00"/>
        <vehicle id="veh_9" x="1.60" y="-257.87" angle="0.00" type="DEFAULT_VEHTYPE" speed="13.88" pos="143.90" lane="road_ver_3_0" slope="0.00"/>
    </timestep>
    <timestep time="13.00">
        <vehicle id="veh_0" x="-245.67" y="-1.60" angle="90.00" type="DEFAULT_VEHTYPE" speed="13.88" pos="185.54" lane="road_hrz_1_0" slope="0.00"/>
        <vehicle id="veh_1" x="-1.60" y="245.67" angle="180.00" type="DEFAULT_VEHTYPE" speed="13.88" pos="185.54" lane="road_ver_1_0" slope="0.00"/>
        <vehicle id="veh_10" x="1.60" y="-257.87" angle="0.00" type="DEFAULT_VEHTYPE" speed="13.88" pos="143.90" lane="road_ver_3_0" slope="0.00"/>
        <vehicle id="veh_11" x="1.60" y="-261.93" angle="0.00" type="DEFAULT_VEHTYPE" speed="13.88" pos="130.02" lane="road_ver_3_0" slope="0.00"/>
        <vehicle id="veh_2" x="245.67" y="1.60" angle="270.00" type="DEFAULT_VEHTYPE" speed="13.88" pos="185.54" lane="road_hrz_3_0" slope="0.00"/>
        <vehicle id="veh_3" x="1.60" y="-245.67" angle="0.00" type="DEFAULT_VEHTYPE" speed="13.88" pos="185.54" lane="road_ver_3_0" slope="0.00"/>
        <vehicle id="veh_4" x="-249.74" y="-1.60" angle="90.00" type="DEFAULT_VEHTYPE" speed="13.88" pos="171.66" lane="road_hrz_1_0" slope="0.00"/>
        <vehicle id="veh_5" x="249.74" y="1.60" angle="270.00" type="DEFAULT_VEHTYPE" speed="13.88" pos="171.66" lane="road_hrz_3_0" slope="0.00"/>
        <vehicle id="veh_6" x="1.60" y="-249.74" angle="0.00" type="DEFAULT_VEHTYPE" speed="13.88" pos="171.66" lane="road_ver_3_0" slope="0.00"/>
        <vehicle id="veh_7" x="-253.80" y="-1.60" angle="90.00" type="DEFAULT_VEHTYPE" speed="13.88" pos="157.78" lane="road_hrz_1_0" slope="0.00"/>
        <vehicle id="veh_8" x="253.80" y="1.60" angle="270.00" type="DEFAULT_VEHTYPE" speed="13.88" pos="157.78" lane="road_hrz_3_0" slope="0.00"/>
        <vehicle id="veh_9" x="1.60" y="-253.80" angle="0.00" type="DEFAULT_VEHTYPE" speed="13.88" pos="157.78" lane="road_ver_3_0" slope="0.00"/>
    </timestep>
    <timestep time="14.00">
        <vehicle id="veh_0" x="-241.61" y="-1.60" angle="90.00" type="DEFAULT_VEHTYPE" speed="13.88" pos="199.42" lane="road_hrz_1_0" slope="0.00"/>
        <vehicle id="veh_1" x="-1.60" y="241.61" angle="180.00" type="DEFAULT_VEHTYPE" speed="13.88" pos="199.42" lane="road_ver_1_0" slope="0.00"/>
        <vehicle id="veh_10" x="1.60" y="-253.80" angle="0.00" type="DEFAULT_VEHTYPE" speed="13.88" pos="157.78" lane="road_ver_3_0" slope="0.00"/>
        <vehicle id="veh_11" x="1.60" y="-257.87" angle="0.00" type="DEFAULT_VEHTYPE" speed="13.88" pos="143.90" lane="road_ver_3_0" slope="0.00"/>
        <vehicle id="veh_2" x="241.61" y="1.60" angle="270.00" type="DEFAULT_VEHTYPE" speed="13.88" pos="199.42" lane="road_hrz_3_0" slope="0.00"/>
        <vehicle id="veh_3" x="1.60" y="-241.61" angle="0.00" type="DEFAULT_VEHTYPE" speed="13.88" pos="199.42" lane="road_ver_3_0" slope="0.00"/>
        <vehicle id="veh_4" x="-245.67" y="-1.60" angle="90.00" type="DEFAULT_VEHTYPE" speed="13.88" pos="185.54" lane="road_hrz_1_0" slope="0.00"/>
        <vehicle id="veh_5" x="245.67" y="1.60" angle="270.00" type="DEFAULT_VEHTYPE" speed="13.88" pos="185.54" lane="road_hrz_3_0" slope="0.00"/>
        <vehicle id="veh_6" x="1.60" y="-245.67" angle="0.00" type="DEFAULT_VEHTYPE" speed="13.88" pos="185.54" lane="road_ver_3_0" slope="0.00"/>
        <vehicle id="veh_7" x="-249.74" y="-1.60" angle="90.00" type="DEFAULT_VEHTYPE" speed="13.88" pos="171.66" lane="road_hrz_1_0" slope="0.00"/>
        <vehicle id="veh_8" x="249.74" y="1.60" angle="270.00" type="DEFAULT_VEHTYPE" speed="13.88" pos="171.66" lane="road_hrz_3_0" slope="0.00"/>
        <vehicle id="veh_9" x="1.60" y="-249.74" angle="0.00" type="DEFAULT_VEHTYPE" speed="13.88" pos="171.66" lane="road_ver_3_0" slope="0.00"/>
    </timestep>
    <timestep time="15.00">
        <vehicle id="veh_0" x="-237.55" y="-1.60" angle="90.00" type="DEFAULT_VEHTYPE" speed="13.88" pos="213.30" lane="road_hrz_1_0" slope="0.00"/>
        <vehicle id="veh_1" x="-1.60" y="237.55" angle="180.00" type="DEFAULT_VEHTYPE" speed="13.88" pos="213.30" lane="road_ver_1_0" slope="0.00"/>
        <vehicle id="veh_10" x="1.60" y="-249.74" angle="0.00" type="DEFAULT_VEHTYPE" speed="13.88" pos="171.66" lane="road_ver_3_0" slope="0.00"/>
        <vehicle id="veh_11" x="1.60" y="-253.80" angle="0.00" type="DEFAULT_VEHTYPE" speed="13.88" pos="157.78" lane="road_ver_3_0" slope="0.00"/>
        <vehicle id="veh_2" x="237.55" y="1.60" angle="270.00" type="DEFAULT_VEHTYPE" speed="13.88" pos="213.30" lane="road_hrz_3_0" slope="0.00"/>
        <vehicle id="veh_3" x="1.60" y="-237.55" angle="0.00" type="DEFAULT_VEHTYPE" speed="13.88" pos="213.30" lane="road_ver_3_0" slope="0.00"/>
        <vehicle id="veh_4" x="-241.61" y="-1.60" angle="90.00" type="DEFAULT_VEHTYPE" speed="13.88" pos="199.42" lane="road_hrz_1_0" slope="0.00"/>
        <vehicle id="veh_5" x="241.61" y="1.60" angle="270.00" type="DEFAULT_VEHTYPE" speed="13.88" pos="199.42" lane="road_hrz_3_0" slope="0.00"/>
        <vehicle id="veh_6" x="1.60" y="-241.61" angle="0.00" type="DEFAULT_VEHTYPE" speed="13.88" pos="199.42" lane="road_ver_3_0" slope="0.00"/>
        <vehicle id="veh_7" x="-245.67" y="-1.60" angle="90.00" type="DEFAULT_VEHTYPE" speed="13.88" pos="185.54" lane="road_hrz_1_0" slope="0.00"/>
        <vehicle id="veh_8" x="245.67" y="1.60" angle="270.00" type="DEFAULT_VEHTYPE" speed="13.88" pos="185.54" lane="road_hrz_3_0" slope="0.00"/>
        <vehicle id="veh_9" x="1.60" y="-245.67" angle="0.00" type="DEFAULT_VEHTYPE" speed="13.88" pos="185.54" lane="road_ver_3_0" slope="0.00"/>
    </timestep>
    <timestep time="16.00">
        <vehicle id="veh_0" x="-233.48" y="-1.60" angle="90.00" type="DEFAULT_VEHTYPE" speed="13.88" pos="227.18" lane="road_hrz_1_0" slope="0.00"/>
        <vehicle id="veh_1" x="-1.60" y="233.48" angle="180.00" type="DEFAULT_VEHTYPE" speed="13.88" pos="227.18" lane="road_ver_1_0" slope="0.00"/>
        <vehicle id="veh_10" x="1.60" y="-245.67" angle="0.00" type="DEFAULT_VEHTYPE" speed="13.88" pos="185.54" lane="road_ver_3_0" slope="0.00"/>
        <vehicle id="veh_11" x="1.60" y="-249.74" angle="0.00" type="DEFAULT_VEHTYPE" speed="13.88" pos="171.66" lane="road_ver_3_0" slope="0.00"/>
        <vehicle id="veh_2" x="233.48" y="1.60" angle="270.00" type="DEFAULT_VEHTYPE" speed="13.88" pos="227.18" lane="road_hrz_3_0" slope="0.00"/>
        <vehicle id="veh_3" x="1.60" y="-233.48" angle="0.00" type="DEFAULT_VEHTYPE" speed="13.88" pos="227.18" lane="road_ver_3_0" slope="0.00"/>
        <vehicle id="veh_4" x="-237.55" y="-1.60" angle="90.00" type="DEFAULT_VEHTYPE" speed="13.88" pos="213.30" lane="road_hrz_1_0" slope="0.00"/>
        <vehicle id="veh_5" x="237.55" y="1.60" angle="270.00" type="DEFAULT_VEHTYPE" speed="13.88" pos="213.30" lane="road_hrz_3_0" slope="0.00"/>
        <vehicle id="veh_6" x="1.60" y="-237.55" angle="0.00" type="DEFAULT_VEHTYPE" speed="13.88" pos="213.30" lane="road_ver_3_0" slope="0.00"/>
        <vehicle id="veh_7" x="-241.61" y="-1.60" angle="90.00" type="DEFAULT_VEHTYPE" speed="13.88" pos="199.42" lane="road_hrz_1_0" slope="0.00"/>
        <vehicle id="veh_8" x="241.61" y="1.60" angle="270.00" type="DEFAULT_VEHTYPE" speed="13.88" pos="199.42" lane="road_hrz_3_0" slope="0.00"/>
        <vehicle id="veh_9" x="1.60" y="-241.61" angle="0.00" type="DEFAULT_VEHTYPE" speed="13.88" pos="199.42" lane="road_ver_3_0" slope="0.00"/>
    </timestep>
    <timestep time="17.00">
        <vehicle id="veh_0" x="-229.42" y="-1.60" angle="90.00" type="DEFAULT_VEHTYPE" speed="13.88" pos="241.06" lane="road_hrz_1_0" slope="0.00"/>
        <vehicle id="veh_1" x="-1.60" y="229.42" angle="180.00" type="DEFAULT_VEHTYPE" speed="13.88" pos="241.06" lane="road_ver_1_0" slope="0.00"/>
        <vehicle id="veh_10" x="1.60" y="-241.61" angle="0.00" type="DEFAULT_VEHTYPE" speed="13.88" pos="199.42" lane="road_ver_3_0" slope="0.00"/>