<?xml version="1.0" encoding="UTF-8"?>

<!-- generated on 2024-11-19 20:25:40 by Eclipse SUMO GUI Version 1.20.0
<configuration xmlns:xsi="http://www.w3.org/2001/XMLSchema-instance" xsi:noNamespaceSchemaLocation="http://sumo.dlr.de/xsd/sumoConfiguration.xsd">

    <input>
        <net-file value="../data/2x4_intersection.net.xml"/>
        <route-files value="../data/2x4_intersection.rou.xml"/>
    </input>

    <output>
        <netstate-dump value="../data/tutorial_netstate.xml"/>
        <fcd-output value="../data/tutorial_fcd.xml"/>
        <tripinfo-output value="../out/tripinfo.xml"/>
        <collision-output value="../out/collisions.xml"/>
        <statistic-output value="../out/statistics.xml"/>
    </output>

    <traci_server>
        <remote-port value="50756"/>
    </traci_server>

</configuration>
-->

<fcd-export xmlns:xsi="http://www.w3.org/2001/XMLSchema-instance" xsi:noNamespaceSchemaLocation="http://sumo.dlr.de/xsd/fcd_file.xsd">
    <timestep time="0.00">
        <vehicle id="veh_0" x="-1.60" y="994.94" angle="180.00" type="DEFAULT_VEHTYPE" speed="0.00" pos="5.10" lane="road_ver_1_0" slope="0.00"/>
        <vehicle id="veh_1" x="1.60" y="-994.94" angle="0.00" type="DEFAULT_VEHTYPE" speed="0.00" pos="5.10" lane="road_ver_3_0" slope="0.00"/>
        <vehicle id="veh_3" x="-994.94" y="-1.60" angle="90.00" type="DEFAULT_VEHTYPE" speed="0.00" pos="5.10" lane="road_hrz_1_0" slope="0.00"/>
        <vehicle id="veh_4" x="994.94" y="1.60" angle="270.00" type="DEFAULT_VEHTYPE" speed="0.00" pos="5.10" lane="road_hrz_3_0" slope="0.00"/>
    </timestep>
    <timestep time="1.00">
        <vehicle id="veh_0" x="-1.60" y="981.16" angle="180.00" type="DEFAULT_VEHTYPE" speed="13.88" pos="18.98" lane="road_ver_1_0" slope="0.00"/>
        <vehicle id="veh_1" x="1.60" y="-981.16" angle="0.00" type="DEFAULT_VEHTYPE" speed="13.88" pos="18.98" lane="road_ver_3_0" slope="0.00"/>
        <vehicle id="veh_10" x="-994.94" y="-1.60" angle="90.00" type="DEFAULT_VEHTYPE" speed="0.00" pos="5.10" lane="road_hrz_1_0" slope="0.00"/>
        <vehicle id="veh_2" x="-1.60" y="994.94" angle="180.00" type="DEFAULT_VEHTYPE" speed="0.00" pos="5.10" lane="road_ver_1_0" slope="0.00"/>
        <vehicle id="veh_3" x="-981.16" y="-1.60" angle="90.00" type="DEFAULT_VEHTYPE" speed="13.88" pos="18.98" lane="road_hrz_1_0" slope="0.00"/>
        <vehicle id="veh_4" x="981.16" y="1.60" angle="270.00" type="DEFAULT_VEHTYPE" speed="13.88" pos="18.98" lane="road_hrz_3_0" slope="0.00"/>
        <vehicle id="veh_6" x="994.94" y="1.60" angle="270.00" type="DEFAULT_VEHTYPE" speed="0.00" pos="5.10" lane="road_hrz_3_0" slope="0.00"/>
        <vehicle id="veh_9" x="1.60" y="-994.94" angle="0.00" type="DEFAULT_VEHTYPE" speed="0.00" pos="5.10" lane="road_ver_3_0" slope="0.00"/>
    </timestep>
    <timestep time="2.00">
        <vehicle id="veh_0" x="-1.60" y="967.38" angle="180.00" type="DEFAULT_VEHTYPE" speed="13.88" pos="32.86" lane="road_ver_1_0" slope="0.00"/>
        <vehicle id="veh_1" x="1.60" y="-967.38" angle="0.00" type="DEFAULT_VEHTYPE" speed="13.88" pos="32.86" lane="road_ver_3_0" slope="0.00"/>
        <vehicle id="veh_10" x="-981.16" y="-1.60" angle="90.00" type="DEFAULT_VEHTYPE" speed="13.88" pos="18.98" lane="road_hrz_1_0" slope="0.00"/>
        <vehicle id="veh_12" x="-994.94" y="-1.60" angle="90.00" type="DEFAULT_VEHTYPE" speed="0.00" pos="5.10" lane="road_hrz_1_0" slope="0.00"/>
        <vehicle id="veh_15" x="1.60" y="-994.94" angle="0.00" type="DEFAULT_VEHTYPE" speed="0.00" pos="5.10" lane="road_ver_3_0" slope="0.00"/>
        <vehicle id="veh_2" x="-1.60" y="981.16" angle="180.00" type="DEFAULT_VEHTYPE" speed="13.88" pos="18.98" lane="road_ver_1_0" slope="0.00"/>
        <vehicle id="veh_3" x="-967.38" y="-1.60" angle="90.00" type="DEFAULT_VEHTYPE" speed="13.88" pos="32.86" lane="road_hrz_1_0" slope="0.00"/>
        <vehicle id="veh_4" x="967.38" y="1.60" angle="270.00" type="DEFAULT_VEHTYPE" speed="13.88" pos="32.86" lane="road_hrz_3_0" slope="0.00"/>
        <vehicle id="veh_5" x="-1.60" y="994.94" angle="180.00" type="DEFAULT_VEHTYPE" speed="0.00" pos="5.10" lane="road_ver_1_0" slope="0.00"/>
        <vehicle id="veh_6" x="981.16" y="1.60" angle="270.00" type="DEFAULT_VEHTYPE" speed="13.88" pos="18.98" lane="road_hrz_3_0" slope="0.00"/>
        <vehicle id="veh_7" x="994.94" y="1.60" angle="270.00" type="DEFAULT_VEHTYPE" speed="0.00" pos="5.10" lane="road_hrz_3_0" slope="0.00"/>
        <vehicle id="veh_9" x="1.60" y="-981.16" angle="0.00" type="DEFAULT_VEHTYPE" speed="13.88" pos="18.98" lane="road_ver_3_0" slope="0.00"/>
    </timestep>
    <timestep time="3.00">
        <vehicle id="veh_0" x="-1.60" y="953.60" angle="180.00" type="DEFAULT_VEHTYPE" speed="13.88" pos="46.74" lane="road_ver_1_0" slope="0.00"/>
        <vehicle id="veh_1" x="1.60" y="-953.60" angle="0.00" type="DEFAULT_VEHTYPE" speed="13.88" pos="46.74" lane="road_ver_3_0" slope="0.00"/>
        <vehicle id="veh_10" x="-967.38" y="-1.60" angle="90.00" type="DEFAULT_VEHTYPE" speed="13.88" pos="32.86" lane="road_hrz_1_0" slope="0.00"/>
        <vehicle id="veh_12" x="-981.16" y="-1.60" angle="90.00" type="DEFAULT_VEHTYPE" speed="13.88" pos="18.98" lane="road_hrz_1_0" slope="0.00"/>
        <vehicle id="veh_13" x="-994.94" y="-1.60" angle="90.00" type="DEFAULT_VEHTYPE" speed="0.00" pos="5.10" lane="road_hrz_1_0" slope="0.00"/>
        <vehicle id="veh_15" x="1.60" y="-981.16" angle="0.00" type="DEFAULT_VEHTYPE" speed="13.88" pos="18.98" lane="road_ver_3_0" slope="0.00"/>
        <vehicle id="veh_16" x="1.60" y="-994.94" angle="0.00" type="DEFAULT_VEHTYPE" speed="0.00" pos="5.10" lane="road_ver_3_0" slope="0.00"/>
        <vehicle id="veh_2" x="-1.60" y="967.38" angle="180.00" type="DEFAULT_VEHTYPE" speed="13.88" pos="32.86" lane="road_ver_1_0" slope="0.00"/>
        <vehicle id="veh_22" x="-1.60" y="994.94" angle="180.00" type="DEFAULT_VEHTYPE" speed="0.00" pos="5.10" lane="road_ver_1_0" slope="0.00"/>
        <vehicle id="veh_3" x="-953.60" y="-1.60" angle="90.00" type="DEFAULT_VEHTYPE" speed="13.88" pos="46.74" lane="road_hrz_1_0" slope="0.00"/>
        <vehicle id="veh_4" x="953.60" y="1.60" angle="270.00" type="DEFAULT_VEHTYPE" speed="13.88" pos="46.74" lane="road_hrz_3_0" slope="0.00"/>
        <vehicle id="veh_5" x="-1.60" y="981.16" angle="180.00" type="DEFAULT_VEHTYPE" speed="13.88" pos="18.98" lane="road_ver_1_0" slope="0.00"/>
        <vehicle id="veh_6" x="967.38" y="1.60" angle="270.00" type="DEFAULT_VEHTYPE" speed="13.88" pos="32.86" lane="road_hrz_3_0" slope="0.00"/>
        <vehicle id="veh_7" x="981.16" y="1.60" angle="270.00" type="DEFAULT_VEHTYPE" speed="13.88" pos="18.98" lane="road_hrz_3_0" slope="0.00"/>
        <vehicle id="veh_8" x="994.94" y="1.60" angle="270.00" type="DEFAULT_VEHTYPE" speed="0.00" pos="5.10" lane="road_hrz_3_0" slope="0.00"/>
        <vehicle id="veh_9" x="1.60" y="-967.38" angle="0.00" type="DEFAULT_VEHTYPE" speed="13.88" pos="32.86" lane="road_ver_3_0" slope="0.00"/>
    </timestep>
    <timestep time="4.00">
        <vehicle id="veh_0" x="-1.60" y="939.82" angle="180.00" type="DEFAULT_VEHTYPE" speed="13.88" pos="60.62" lane="road_ver_1_0" slope="0.00"/>
        <vehicle id="veh_1" x="1.60" y="-939.82" angle="0.00" type="DEFAULT_VEHTYPE" speed="13.88" pos="60.62" lane="road_ver_3_0" slope="0.00"/>
        <vehicle id="veh_10" x="-953.60" y="-1.60" angle="90.00" type="DEFAULT_VEHTYPE" speed="13.88" pos="46.74" lane="road_hrz_1_0" slope="0.00"/>
        <vehicle id="veh_11" x="994.94" y="1.60" angle="270.00" type="DEFAULT_VEHTYPE" speed="0.00" pos="5.10" lane="road_hrz_3_0" slope="0.00"/>
        <vehicle id="veh_12" x="-967.38" y="-1.60" angle="90.00" type="DEFAULT_VEHTYPE" speed="13.88" pos="32.86" lane="road_hrz_1_0" slope="0.00"/>
        <vehicle id="veh_13" x="-981.16" y="-1.60" angle="90.00" type="DEFAULT_VEHTYPE" speed="13.88" pos="18.98" lane="road_hrz_1_0" slope="0.00"/>
        <vehicle id="veh_15" x="1.60" y="-967.38" angle="0.00" type="DEFAULT_VEHTYPE" speed="13.88" pos="32.86" lane="road_ver_3_0" slope="0.00"/>
        <vehicle id="veh_16" x="1.60" y="-981.16" angle="0.00" type="DEFAULT_VEHTYPE" speed="13.88" pos="18.98" lane="road_ver_3_0" slope="0.00"/>
        <vehicle id="veh_18" x="-994.94" y="-1.60" angle="90.00" type="DEFAULT_VEHTYPE" speed="0.00" pos="5.10" lane="road_hrz_1_0" slope="0.00"/>
        <vehicle id="veh_2" x="-1.60" y="953.60" angle="180.00" type="DEFAULT_VEHTYPE" speed="13.88" pos="46.74" lane="road_ver_1_0" slope="0.00"/>
        <vehicle id="veh_20" x="1.60" y="-994.94" angle="0.00" type="DEFAULT_VEHTYPE" speed="0.00" pos="5.10" lane="road_ver_3_0" slope="0.00"/>
        <vehicle id="veh_22" x="-1.60" y="981.16" angle="180.00" type="DEFAULT_VEHTYPE" speed="13.88" pos="18.98" lane="road_ver_1_0" slope="0.00"/>
        <vehicle id="veh_27" x="-1.60" y="994.94" angle="180.00" type="DEFAULT_VEHTYPE" speed="0.00" pos="5.10" lane="road_ver_1_0" slope="0.00"/>
        <vehicle id="veh_3" x="-939.82" y="-1.60" angle="90.00" type="DEFAULT_VEHTYPE" speed="13.88" pos="60.62" lane="road_hrz_1_0" slope="0.00"/>
        <vehicle id="veh_4" x="939.82" y="1.60" angle="270.00" type="DEFAULT_VEHTYPE" speed="13.88" pos="60.62" lane="road_hrz_3_0" slope="0.00"/>
        <vehicle id="veh_5" x="-1.60" y="967.38" angle="180.00" type="DEFAULT_VEHTYPE" speed="13.88" pos="32.86" lane="road_ver_1_0" slope="0.00"/>
        <vehicle id="veh_6" x="953.60" y="1.60" angle="270.00" type="DEFAULT_VEHTYPE" speed="13.88" pos="46.74" lane="road_hrz_3_0" slope="0.00"/>
        <vehicle id="veh_7" x="967.38" y="1.60" angle="270.00" type="DEFAULT_VEHTYPE" speed="13.88" pos="32.86" lane="road_hrz_3_0" slope="0.00"/>
        <vehicle id="veh_8" x="981.16" y="1.60" angle="270.00" type="DEFAULT_VEHTYPE" speed="13.88" pos="18.98" lane="road_hrz_3_0" slope="0.00"/>
        <vehicle id="veh_9" x="1.60" y="-953.60" angle="0.00" type="DEFAULT_VEHTYPE" speed="13.88" pos="46.74" lane="road_ver_3_0" slope="0.00"/>
    </timestep>
    <timestep time="5.00">
        <vehicle id="veh_0" x="-1.60" y="926.04" angle="180.00" type="DEFAULT_VEHTYPE" speed="13.88" pos="74.50" lane="road_ver_1_0" slope="0.00"/>
        <vehicle id="veh_1" x="1.60" y="-926.04" angle="0.00" type="DEFAULT_VEHTYPE" speed="13.88" pos="74.50" lane="road_ver_3_0" slope="0.00"/>
        <vehicle id="veh_10" x="-939.82" y="-1.60" angle="90.00" type="DEFAULT_VEHTYPE" speed="13.88" pos="60.62" lane="road_hrz_1_0" slope="0.00"/>
        <vehicle id="veh_11" x="981.16" y="1.60" angle="270.00" type="DEFAULT_VEHTYPE" speed="13.88" pos="18.98" lane="road_hrz_3_0" slope="0.00"/>
        <vehicle id="veh_12" x="-953.60" y="-1.60" angle="90.00" type="DEFAULT_VEHTYPE" speed="13.88" pos="46.74" lane="road_hrz_1_0" slope="0.00"/>
        <vehicle id="veh_13" x="-967.38" y="-1.60" angle="90.00" type="DEFAULT_VEHTYPE" speed="13.88" pos="32.86" lane="road_hrz_1_0" slope="0.00"/>
        <vehicle id="veh_14" x="994.94" y="1.60" angle="270.00" type="DEFAULT_VEHTYPE" speed="0.00" pos="5.10" lane="road_hrz_3_0" slope="0.00"/>
        <vehicle id="veh_15" x="1.60" y="-953.60" angle="0.00" type="DEFAULT_VEHTYPE" speed="13.88" pos="46.74" lane="road_ver_3_0" slope="0.00"/>
        <vehicle id="veh_16" x="1.60" y="-967.38" angle="0.00" type="DEFAULT_VEHTYPE" speed="13.88" pos="32.86" lane="road_ver_3_0" slope="0.00"/>
        <vehicle id="veh_18" x="-981.16" y="-1.60" angle="90.00" type="DEFAULT_VEHTYPE" speed="13.88" pos="18.98" lane="road_hrz_1_0" slope="0.00"/>
        <vehicle id="veh_2" x="-1.60" y="939.82" angle="180.00" type="DEFAULT_VEHTYPE" speed="13.88" pos="60.62" lane="road_ver_1_0" slope="0.00"/>
        <vehicle id="veh_20" x="1.60" y="-981.16" angle="0.00" type="DEFAULT_VEHTYPE" speed="13.88" pos="18.98" lane="road_ver_3_0" slope="0.00"/>
        <vehicle id="veh_22" x="-1.60" y="967.38" angle="180.00" type="DEFAULT_VEHTYPE" speed="13.88" pos="32.86" lane="road_ver_1_0" slope="0.00"/>
        <vehicle id="veh_23" x="-994.94" y="-1.60" angle="90.00" type="DEFAULT_VEHTYPE" speed="0.00" pos="5.10" lane="road_hrz_1_0" slope="0.00"/>
        <vehicle id="veh_25" x="1.60" y="-994.94" angle="0.00" type="DEFAULT_VEHTYPE" speed="0.00" pos="5.10" lane="road_ver_3_0" slope="0.00"/>
        <vehicle id="veh_27" x="-1.60" y="981.16" angle="180.00" type="DEFAULT_VEHTYPE" speed="13.88" pos="18.98" lane="road_ver_1_0" slope="0.00"/>
        <vehicle id="veh_28" x="-1.60" y="994.94" angle="180.00" type="DEFAULT_VEHTYPE" speed="0.00" pos="5.10" lane="road_ver_1_0" slope="0.00"/>
        <vehicle id="veh_3" x="-926.04" y="-1.60" angle="90.00" type="DEFAULT_VEHTYPE" speed="13.88" pos="74.50" lane="road_hrz_1_0" slope="0.00"/>
        <vehicle id="veh_4" x="926.04" y="1.60" angle="270.00" type="DEFAULT_VEHTYPE" speed="13.88" pos="74.50" lane="road_hrz_3_0" slope="0.00"/>
        <vehicle id="veh_5" x="-1.60" y="953.60" angle="180.00" type="DEFAULT_VEHTYPE" speed="13.88" pos="46.74" lane="road_ver_1_0" slope="0.00"/>
        <vehicle id="veh_6" x="939.82" y="1.60" angle="270.00" type="DEFAULT_VEHTYPE" speed="13.88" pos="60.62" lane="road_hrz_3_0" slope="0.00"/>
        <vehicle id="veh_7" x="953.60" y="1.60" angle="270.00" type="DEFAULT_VEHTYPE" speed="13.88" pos="46.74" lane="road_hrz_3_0" slope="0.00"/>
        <vehicle id="veh_8" x="967.38" y="1.60" angle="270.00" type="DEFAULT_VEHTYPE" speed="13.88" pos="32.86" lane="road_hrz_3_0" slope="0.00"/>
        <vehicle id="veh_9" x="1.60" y="-939.82" angle="0.00" type="DEFAULT_VEHTYPE" speed="13.88" pos="60.62" lane="road_ver_3_0" slope="0.00"/>
    </timestep>
    <timestep time="6.00">
        <vehicle id="veh_0" x="-1.60" y="912.26" angle="180.00" type="DEFAULT_VEHTYPE" speed="13.88" pos="88.38" lane="road_ver_1_0" slope="0.00"/>
        <vehicle id="veh_1" x="1.60" y="-912.26" angle="0.00" type="DEFAULT_VEHTYPE" speed="13.88" pos="88.38" lane="road_ver_3_0" slope="0.00"/>
        <vehicle id="veh_10" x="-926.04" y="-1.60" angle="90.00" type="DEFAULT_VEHTYPE" speed="13.88" pos="74.50" lane="road_hrz_1_0" slope="0.00"/>
        <vehicle id="veh_11" x="967.38" y="1.60" angle="270.00" type="DEFAULT_VEHTYPE" speed="13.88" pos="32.86" lane="road_hrz_3_0" slope="0.00"/>
        <vehicle id="veh_12" x="-939.82" y="-1.60" angle="90.00" type="DEFAULT_VEHTYPE" speed="13.88" pos="60.62" lane="road_hrz_1_0" slope="0.00"/>
        <vehicle id="veh_13" x="-953.60" y="-1.60" angle="90.00" type="DEFAULT_VEHTYPE" speed="13.88" pos="46.74" lane="road_hrz_1_0" slope="0.00"/>
        <vehicle id="veh_14" x="981.16" y="1.60" angle="270.00" type="DEFAULT_VEHTYPE" speed="13.88" pos="18.98" lane="road_hrz_3_0" slope="0.00"/>
        <vehicle id="veh_15" x="1.60" y="-939.82" angle="0.00" type="DEFAULT_VEHTYPE" speed="13.88" pos="60.62" lane="road_ver_3_0" slope="0.00"/>
        <vehicle id="veh_16" x="1.60" y="-953.60" angle="0.00" type="DEFAULT_VEHTYPE" speed="13.88" pos="46.74" lane="road_ver_3_0" slope="0.00"/>
        <vehicle id="veh_17" x="994.94" y="1.60" angle="270.00" type="DEFAULT_VEHTYPE" speed="0.00" pos="5.10" lane="road_hrz_3_0" slope="0.00"/>
        <vehicle id="veh_18" x="-967.38" y="-1.60" angle="90.00" type="DEFAULT_VEHTYPE" speed="13.88" pos="32.86" lane="road_hrz_1_0" slope="0.00"/>
        <vehicle id="veh_2" x="-1.60" y="926.04" angle="180.00" type="DEFAULT_VEHTYPE" speed="13.88" pos="74.50" lane="road_ver_1_0" slope="0.00"/>
        <vehicle id="veh_20" x="1.60" y="-967.38" angle="0.00" type="DEFAULT_VEHTYPE" speed="13.88" pos="32.86" lane="road_ver_3_0" slope="0.00"/>
        <vehicle id="veh_22" x="-1.60" y="953.60" angle="180.00" type="DEFAULT_VEHTYPE" speed="13.88" pos="46.74" lane="road_ver_1_0" slope="0.00"/>
        <vehicle id="veh_23" x="-981.16" y="-1.60" angle="90.00" type="DEFAULT_VEHTYPE" speed="13.88" pos="18.98" lane="road_hrz_1_0" slope="0.00"/>
        <vehicle id="veh_25" x="1.60" y="-981.16" angle="0.00" type="DEFAULT_VEHTYPE" speed="13.88" pos="18.98" lane="road_ver_3_0" slope="0.00"/>
        <vehicle id="veh_26" x="-994.94" y="-1.60" angle="90.00" type="DEFAULT_VEHTYPE" speed="0.00" pos="5.10" lane="road_hrz_1_0" slope="0.00"/>
        <vehicle id="veh_27" x="-1.60" y="967.38" angle="180.00" type="DEFAULT_VEHTYPE" speed="13.88" pos="32.86" lane="road_ver_1_0" slope="0.00"/>
        <vehicle id="veh_28" x="-1.60" y="981.16" angle="180.00" type="DEFAULT_VEHTYPE" speed="13.88" pos="18.98" lane="road_ver_1_0" slope="0.00"/>
        <vehicle id="veh_3" x="-912.26" y="-1.60" angle="90.00" type="DEFAULT_VEHTYPE" speed="13.88" pos="88.38" lane="road_hrz_1_0" slope="0.00"/>
        <vehicle id="veh_34" x="-1.60" y="994.94" angle="180.00" type="DEFAULT_VEHTYPE" speed="0.00" pos="5.10" lane="road_ver_1_0" slope="0.00"/>
        <vehicle id="veh_4" x="912.26" y="1.60" angle="270.00" type="DEFAULT_VEHTYPE" speed="13.88" pos="88.38" lane="road_hrz_3_0" slope="0.00"/>
        <vehicle id="veh_41" x="1.60" y="-994.94" angle="0.00" type="DEFAULT_VEHTYPE" speed="0.00" pos="5.10" lane="road_ver_3_0" slope="0.00"/>
        <vehicle id="veh_5" x="-1.60" y="939.82" angle="180.00" type="DEFAULT_VEHTYPE" speed="13.88" pos="60.62" lane="road_ver_1_0" slope="0.00"/>
        <vehicle id="veh_6" x="926.04" y="1.60" angle="270.00" type="DEFAULT_VEHTYPE" speed="13.88" pos="74.50" lane="road_hrz_3_0" slope="0.00"/>
        <vehicle id="veh_7" x="939.82" y="1.60" angle="270.00" type="DEFAULT_VEHTYPE" speed="13.88" pos="60.62" lane="road_hrz_3_0" slope="0.00"/>
        <vehicle id="veh_8" x="953.60" y="1.60" angle="270.00" type="DEFAULT_VEHTYPE" speed="13.88" pos="46.74" lane="road_hrz_3_0" slope="0.00"/>
        <vehicle id="veh_9" x="1.60" y="-926.04" angle="0.00" type="DEFAULT_VEHTYPE" speed="13.88" pos="74.50" lane="road_ver_3_0" slope="0.00"/>
    </timestep>
    <timestep time="7.00">
        <vehicle id="veh_0" x="-1.60" y="898.48" angle="180.00" type="DEFAULT_VEHTYPE" speed="13.88" pos="102.26" lane="road_ver_1_0" slope="0.00"/>
        <vehicle id="veh_1" x="1.60" y="-898.48" angle="0.00" type="DEFAULT_VEHTYPE" speed="13.88" pos="102.26" lane="road_ver_3_0" slope="0.00"/>
        <vehicle id="veh_10" x="-912.26" y="-1.60" angle="90.00" type="DEFAULT_VEHTYPE" speed="13.88" pos="88.38" lane="road_hrz_1_0" slope="0.00"/>
        <vehicle id="veh_11" x="953.60" y="1.60" angle="270.00" type="DEFAULT_VEHTYPE" speed="13.88" pos="46.74" lane="road_hrz_3_0" slope="0.00"/>
        <vehicle id="veh_12" x="-926.04" y="-1.60" angle="90.00" type="DEFAULT_VEHTYPE" speed="13.88" pos="74.50" lane="road_hrz_1_0" slope="0.00"/>
        <vehicle id="veh_13" x="-939.82" y="-1.60" angle="90.00" type="DEFAULT_VEHTYPE" speed="13.88" pos="60.62" lane="road_hrz_1_0" slope="0.00"/>
        <vehicle id="veh_14" x="967.38" y="1.60" angle="270.00" type="DEFAULT_VEHTYPE" speed="13.88" pos="32.86" lane="road_hrz_3_0" slope="0.00"/>
        <vehicle id="veh_15" x="1.60" y="-926.04" angle="0.00" type="DEFAULT_VEHTYPE" speed="13.88" pos="74.50" lane="road_ver_3_0" slope="0.00"/>
        <vehicle id="veh_16" x="1.60" y="-939.82" angle="0.00" type="DEFAULT_VEHTYPE" speed="13.88" pos="60.62" lane="road_ver_3_0" slope="0.00"/>
        <vehicle id="veh_17" x="981.16" y="1.60" angle="270.00" type="DEFAULT_VEHTYPE" speed="13.88" pos="18.98" lane="road_hrz_3_0" slope="0.00"/>
        <vehicle id="veh_18" x="-953.60" y="-1.60" angle="90.00" type="DEFAULT_VEHTYPE" speed="13.88" pos="46.74" lane="road_hrz_1_0" slope="0.00"/>
        <vehicle id="veh_19" x="994.94" y="1.60" angle="270.00" type="DEFAULT_VEHTYPE" speed="0.00" pos="5.10" lane="road_hrz_3_0" slope="0.00"/>
        <vehicle id="veh_2" x="-1.60" y="912.26" angle="180.00" type="DEFAULT_VEHTYPE" speed="13.88" pos="88.38" lane="road_ver_1_0" slope="0.00"/>
        <vehicle id="veh_20" x="1.60" y="-953.60" angle="0.00" type="DEFAULT_VEHTYPE" speed="13.88" pos="46.74" lane="road_ver_3_0" slope="0.00"/>
        <vehicle id="veh_22" x="-1.60" y="939.82" angle="180.00" type="DEFAULT_VEHTYPE" speed="13.88" pos="60.62" lane="road_ver_1_0" slope="0.00"/>
        <vehicle id="veh_23" x="-967.38" y="-1.60" angle="90.00" type="DEFAULT_VEHTYPE" speed="13.88" pos="32.86" lane="road_hrz_1_0" slope="0.00"/>
        <vehicle id="veh_25" x="1.60" y="-967.38" angle="0.00" type="DEFAULT_VEHTYPE" speed="13.88" pos="32.86" lane="road_ver_3_0" slope="0.00"/>
        <vehicle id="veh_26" x="-981.16" y="-1.60" angle="90.00" type="DEFAULT_VEHTYPE" speed="13.88" pos="18.98" lane="road_hrz_1_0" slope="0.00"/>
        <vehicle id="veh_27" x="-1.60" y="953.60" angle="180.00" type="DEFAULT_VEHTYPE" speed="13.88" pos="46.74" lane="road_ver_1_0" slope="0.00"/>
        <vehicle id="veh_28" x="-1.60" y="967.38" angle="180.00" type="DEFAULT_VEHTYPE" speed="13.88" pos="32.86" lane="road_ver_1_0" slope="0.00"/>
        <vehicle id="veh_3" x="-898.48" y="-1.60" angle="90.00" type="DEFAULT_VEHTYPE" speed="13.88" pos="102.26" lane="road_hrz_1_0" slope="0.00"/>
        <vehicle id="veh_30" x="-994.94" y="-1.60" angle="90.00" type="DEFAULT_VEHTYPE" speed="0.00" pos="5.10" lane="road_hrz_1_0" slope="0.00"/>
        <vehicle id="veh_34" x="-1.60" y="981.16" angle="180.00" type="DEFAULT_VEHTYPE" speed="13.88" pos="18.98" lane="road_ver_1_0" slope="0.00"/>
        <vehicle id="veh_38" x="-1.60" y="994.94" angle="180.00" type="DEFAULT_VEHTYPE" speed="0.00" pos="5.10" lane="road_ver_1_0" slope="0.00"/>
        <vehicle id="veh_4" x="898.48" y="1.60" angle="270.00" type="DEFAULT_VEHTYPE" speed="13.88" pos="102.26" lane="road_hrz_3_0" slope="0.00"/>
        <vehicle id="veh_41" x="1.60" y="-981.16" angle="0.00" type="DEFAULT_VEHTYPE" speed="13.88" pos="18.98" lane="road_ver_3_0" slope="0.00"/>
        <vehicle id="veh_47" x="1.60" y="-994.94" angle="0.00" type="DEFAULT_VEHTYPE" speed="0.00" pos="5.10" lane="road_ver_3_0" slope="0.00"/>
        <vehicle id="veh_5" x="-1.60" y="926.04" angle="180.00" type="DEFAULT_VEHTYPE" speed="13.88" pos="74.50" lane="road_ver_1_0" slope="0.00"/>
        <vehicle id="veh_6" x="912.26" y="1.60" angle="270.00" type="DEFAULT_VEHTYPE" speed="13.88" pos="88.38" lane="road_hrz_3_0" slope="0.00"/>
        <vehicle id="veh_7" x="926.04" y="1.60" angle="270.00" type="DEFAULT_VEHTYPE" speed="13.88" pos="74.50" lane="road_hrz_3_0" slope="0.00"/>
        <vehicle id="veh_8" x="939.82" y="1.60" angle="270.00" type="DEFAULT_VEHTYPE" speed="13.88" pos="60.62" lane="road_hrz_3_0" slope="0.00"/>
        <vehicle id="veh_9" x="1.60" y="-912.26" angle="0.00" type="DEFAULT_VEHTYPE" speed="13.88" pos="88.38" lane="road_ver_3_0" slope="0.00"/>
    </timestep>
    <timestep time="8.00">
        <vehicle id="veh_0" x="-1.60" y="884.70" angle="180.00" type="DEFAULT_VEHTYPE" speed="13.88" pos="116.14" lane="road_ver_1_0" slope="0.00"/>
        <vehicle id="veh_1" x="1.60" y="-884.70" angle="0.00" type="DEFAULT_VEHTYPE" speed="13.88" pos="116.14" lane="road_ver_3_0" slope="0.00"/>
        <vehicle id="veh_10" x="-898.48" y="-1.60" angle="90.00" type="DEFAULT_VEHTYPE" speed="13.88" pos="102.26" lane="road_hrz_1_0" slope="0.00"/>
        <vehicle id="veh_11" x="939.82" y="1.60" angle="270.00" type="DEFAULT_VEHTYPE" speed="13.88" pos="60.62" lane="road_hrz_3_0" slope="0.00"/>
        <vehicle id="veh_12" x="-912.26" y="-1.60" angle="90.00" type="DEFAULT_VEHTYPE" speed="13.88" pos="88.38" lane="road_hrz_1_0" slope="0.00"/>
        <vehicle id="veh_13" x="-926.04" y="-1.60" angle="90.00" type="DEFAULT_VEHTYPE" speed="13.88" pos="74.50" lane="road_hrz_1_0" slope="0.00"/>
        <vehicle id="veh_14" x="953.60" y="1.60" angle="270.00" type="DEFAULT_VEHTYPE" speed="13.88" pos="46.74" lane="road_hrz_3_0" slope="0.00"/>
        <vehicle id="veh_15" x="1.60" y="-912.26" angle="0.00" type="DEFAULT_VEHTYPE" speed="13.88" pos="88.38" lane="road_ver_3_0" slope="0.00"/>
        <vehicle id="veh_16" x="1.60" y="-926.04" angle="0.00" type="DEFAULT_VEHTYPE" speed="13.88" pos="74.50" lane="road_ver_3_0" slope="0.00"/>
        <vehicle id="veh_17" x="967.38" y="1.60" angle="270.00" type="DEFAULT_VEHTYPE" speed="13.88" pos="32.86" lane="road_hrz_3_0" slope="0.00"/>
        <vehicle id="veh_18" x="-939.82" y="-1.60" angle="90.00" type="DEFAULT_VEHTYPE" speed="13.88" pos="60.62" lane="road_hrz_1_0" slope="0.00"/>
        <vehicle id="veh_19" x="981.16" y="1.60" angle="270.00" type="DEFAULT_VEHTYPE" speed="13.88" pos="18.98" lane="road_hrz_3_0" slope="0.00"/>
        <vehicle id="veh_2" x="-1.60" y="898.48" angle="180.00" type="DEFAULT_VEHTYPE" speed="13.88" pos="102.26" lane="road_ver_1_0" slope="0.00"/>
        <vehicle id="veh_20" x="1.60" y="-939.82" angle="0.00" type="DEFAULT_VEHTYPE" speed="13.88" pos="60.62" lane="road_ver_3_0" slope="0.00"/>
        <vehicle id="veh_21" x="994.94" y="1.60" angle="270.00" type="DEFAULT_VEHTYPE" speed="0.00" pos="5.10" lane="road_hrz_3_0" slope="0.00"/>
        <vehicle id="veh_22" x="-1.60" y="926.04" angle="180.00" type="DEFAULT_VEHTYPE" speed="13.88" pos="74.50" lane="road_ver_1_0" slope="0.00"/>
        <vehicle id="veh_23" x="-953.60" y="-1.60" angle="90.00" type="DEFAULT_VEHTYPE" speed="13.88" pos="46.74" lane="road_hrz_1_0" slope="0.00"/>
        <vehicle id="veh_25" x="1.60" y="-953.60" angle="0.00" type="DEFAULT_VEHTYPE" speed="13.88" pos="46.74" lane="road_ver_3_0" slope="0.00"/>
        <vehicle id="veh_26" x="-967.38" y="-1.60" angle="90.00" type="DEFAULT_VEHTYPE" speed="13.88" pos="32.86" lane="road_hrz_1_0" slope="0.00"/>
        <vehicle id="veh_27" x="-1.60" y="939.82" angle="180.00" type="DEFAULT_VEHTYPE" speed="13.88" pos="60.62" lane="road_ver_1_0" slope="0.00"/>
        <vehicle id="veh_28" x="-1.60" y="953.60" angle="180.00" type="DEFAULT_VEHTYPE" speed="13.88" pos="46.74" lane="road_ver_1_0" slope="0.00"/>
        <vehicle id="veh_3" x="-884.70" y="-1.60" angle="90.00" type="DEFAULT_VEHTYPE" speed="13.88" pos="116.14" lane="road_hrz_1_0" slope="0.00"/>
        <vehicle id="veh_30" x="-981.16" y="-1.60" angle="90.00" type="DEFAULT_VEHTYPE" speed="13.88" pos="18.98" lane="road_hrz_1_0" slope="0.00"/>
        <vehicle id="veh_32" x="-994.94" y="-1.60" angle="90.00" type="DEFAULT_VEHTYPE" speed="0.00" pos="5.10" lane="road_hrz_1_0" slope="0.00"/>
        <vehicle id="veh_34" x="-1.60" y="967.38" angle="180.00" type="DEFAULT_VEHTYPE" speed="13.88" pos="32.86" lane="road_ver_1_0" slope="0.00"/>
        <vehicle id="veh_38" x="-1.60" y="981.16" angle="180.00" type="DEFAULT_VEHTYPE" speed="13.88" pos="18.98" lane="road_ver_1_0" slope="0.00"/>
        <vehicle id="veh_4" x="884.70" y="1.60" angle="270.00" type="DEFAULT_VEHTYPE" speed="13.88" pos="116.14" lane="road_hrz_3_0" slope="0.00"/>
        <vehicle id="veh_40" x="-1.60" y="994.94" angle="180.00" type="DEFAULT_VEHTYPE" speed="0.00" pos="5.10" lane="road_ver_1_0" slope="0.00"/>
        <vehicle id="veh_41" x="1.60" y="-967.38" angle="0.00" type="DEFAULT_VEHTYPE" speed="13.88" pos="32.86" lane="road_ver_3_0" slope="0.00"/>
        <vehicle id="veh_47" x="1.60" y="-981.16" angle="0.00" type="DEFAULT_VEHTYPE" speed="13.88" pos="18.98" lane="road_ver_3_0" slope="0.00"/>
        <vehicle id="veh_5" x="-1.60" y="912.26" angle="180.00" type="DEFAULT_VEHTYPE" speed="13.88" pos="88.38" lane="road_ver_1_0" slope="0.00"/>
        <vehicle id="veh_6" x="898.48" y="1.60" angle="270.00" type="DEFAULT_VEHTYPE" speed="13.88" pos="102.26" lane="road_hrz_3_0" slope="0.00"/>
        <vehicle id="veh_7" x="912.26" y="1.60" angle="270.00" type="DEFAULT_VEHTYPE" speed="13.88" pos="88.38" lane="road_hrz_3_0" slope="0.00"/>
        <vehicle id="veh_8" x="926.04" y="1.60" angle="270.00" type="DEFAULT_VEHTYPE" speed="13.88" pos="74.50" lane="road_hrz_3_0" slope="0.00"/>
        <vehicle id="veh_9" x="1.60" y="-898.48" angle="0.00" type="DEFAULT_VEHTYPE" speed="13.88" pos="102.26" lane="road_ver_3_0" slope="0.00"/>
    </timestep>
    <timestep time="9.00">
        <vehicle id="veh_0" x="-1.60" y="870.92" angle="180.00" type="DEFAULT_VEHTYPE" speed="13.88" pos="130.02" lane="road_ver_1_0" slope="0.00"/>
        <vehicle id="veh_1" x="1.60" y="-870.92" angle="0.00" type="DEFAULT_VEHTYPE" speed="13.88" pos="130.02" lane="road_ver_3_0" slope="0.00"/>
        <vehicle id="veh_10" x="-884.70" y="-1.60" angle="90.00" type="DEFAULT_VEHTYPE" speed="13.88" pos="116.14" lane="road_hrz_1_0" slope="0.00"/>
        <vehicle id="veh_11" x="926.04" y="1.60" angle="270.00" type="DEFAULT_VEHTYPE" speed="13.88" pos="74.50" lane="road_hrz_3_0" slope="0.00"/>
        <vehicle id="veh_12" x="-898.48" y="-1.60" angle="90.00" type="DEFAULT_VEHTYPE" speed="13.88" pos="102.26" lane="road_hrz_1_0" slope="0.00"/>
        <vehicle id="veh_13" x="-912.26" y="-1.60" angle="90.00" type="DEFAULT_VEHTYPE" speed="13.88" pos="88.38" lane="road_hrz_1_0" slope="0.00"/>
        <vehicle id="veh_14" x="939.82" y="1.60" angle="270.00" type="DEFAULT_VEHTYPE" speed="13.88" pos="60.62" lane="road_hrz_3_0" slope="0.00"/>
        <vehicle id="veh_15" x="1.60" y="-898.48" angle="0.00" type="DEFAULT_VEHTYPE" speed="13.88" pos="102.26" lane="road_ver_3_0" slope="0.00"/>
        <vehicle id="veh_16" x="1.60" y="-912.26" angle="0.00" type="DEFAULT_VEHTYPE" speed="13.88" pos="88.38" lane="road_ver_3_0" slope="0.00"/>
        <vehicle id="veh_17" x="953.60" y="1.60" angle="270.00" type="DEFAULT_VEHTYPE" speed="13.88" pos="46.74" lane="road_hrz_3_0" slope="0.00"/>
        <vehicle id="veh_18" x="-926.04" y="-1.60" angle="90.00" type="DEFAULT_VEHTYPE" speed="13.88" pos="74.50" lane="road_hrz_1_0" slope="0.00"/>
        <vehicle id="veh_19" x="967.38" y="1.60" angle="270.00" type="DEFAULT_VEHTYPE" speed="13.88" pos="32.86" lane="road_hrz_3_0" slope="0.00"/>
        <vehicle id="veh_2" x="-1.60" y="884.70" angle="180.00" type="DEFAULT_VEHTYPE" speed="13.88" pos="116.14" lane="road_ver_1_0" slope="0.00"/>
        <vehicle id="veh_20" x="1.60" y="-926.04" angle="0.00" type="DEFAULT_VEHTYPE" speed="13.88" pos="74.50" lane="road_ver_3_0" slope="0.00"/>